 Gaussian 09, Revision A.01,
 Gaussian 09:  EM64L-G09RevA.01  8-May-2009

 --------------------------
 #p b3lyp/6-31g(d) opt freq
 --------------------------

 -----------------------------
 using ub3lyp/6-31G(d) to scan
 -----------------------------
 Symbolic Z-matrix:
 Charge =  0 Multiplicity = 1

 SCF Done:  E(RB3LYP) =  -194.348149352     A.U. after   12 cycles
 SCF Done:  E(RB3LYP) =  -194.348152882     A.U. after    8 cycles
 SCF Done:  E(RB3LYP) =  -194.348155257     A.U. after    8 cycles
 SCF Done:  E(RB3LYP) =  -194.348155584     A.U. after    7 cycles
 SCF Done:  E(RB3LYP) =  -194.348155769     A.U. after    7 cycles
 Optimization completed.
    -- Stationary point found.
 Normal termination of Gaussian 09 at Sun Aug 23 11:16:26 2015.

 --------------------------------------------------------------------
 #P Geom=AllCheck Guess=TCheck SCRF=Check GenChk RB3LYP/6-31G(d) Freq
 --------------------------------------------------------------------

 using ub3lyp/6-31G(d) to scan
 -----------------------------
 Redundant internal coordinates taken from checkpoint file:
 C3H7OH_1_2_opt_631gd.chk
 Charge =  0 Multiplicity = 1

                         Standard orientation:
 ---------------------------------------------------------------------
 Center     Atomic      Atomic             Coordinates (Angstroms)
 Number     Number       Type             X           Y           Z
 ---------------------------------------------------------------------
      1          6           0        1.902919   -0.125407    0.016831
      2          1           0        2.056294   -0.814339   -0.822655
      3          1           0        2.037084   -0.697271    0.943348
      4          1           0        2.695383    0.629456   -0.024708
      5          6           0        0.515907    0.522473   -0.044287
      6          1           0        0.406338    1.236754    0.786110
      7          1           0        0.404021    1.101445   -0.969540
      8          6           0       -0.620921   -0.498280    0.026392
      9          1           0       -0.536545   -1.091739    0.953075
     10          1           0       -0.547758   -1.200921   -0.811395
     11          8           0       -1.910316    0.093287   -0.088723
     12          1           0       -2.019718    0.697610    0.661938
 ---------------------------------------------------------------------

 SCF Done:  E(RB3LYP) =  -194.348155769     A.U. after    1 cycles

 The electronic state is 1-A.
 Alpha  occ. eigenvalues --  -19.13789 -10.22510 -10.18255 -10.17910  -1.00951
 Alpha  occ. eigenvalues --   -0.77568  -0.67042  -0.59600  -0.50134  -0.45948
 Alpha  occ. eigenvalues --   -0.41992  -0.41244  -0.38362  -0.35244  -0.34267
 Alpha  occ. eigenvalues --   -0.31659  -0.26099
 Alpha virt. eigenvalues --    0.07701   0.09645   0.13461   0.14402   0.16749
 Alpha virt. eigenvalues --    0.17447   0.18770   0.19634   0.23070   0.23976
 Alpha virt. eigenvalues --    0.26337   0.51894   0.54166   0.54781   0.55289

 Mulliken atomic charges:
              1
     1  C   -0.449710
     2  H    0.147313
     3  H    0.143950
     4  H    0.149092
     5  C   -0.270351
     6  H    0.122013
     7  H    0.148438
     8  C   -0.020870
     9  H    0.115660
    10  H    0.144417
    11  O   -0.614804
    12  H    0.384850
 Sum of Mulliken atomic charges =   0.00000

 Dipole moment (field-independent basis, Debye):
    X=              1.1598    Y=              0.4516    Z=              1.1658  Tot=              1.7053
 Quadrupole moment (field-independent basis, Debye-Ang):
   XX=            -29.6063   YY=            -25.5288   ZZ=            -25.3244
   XY=             -1.4347   XZ=             -2.8592   YZ=              1.2031

  Exact polarizability:  40.393  -1.291  35.341  -0.570   1.128  34.403
 Approx polarizability:  47.938  -2.094  46.904   0.064   2.008  47.921

                     1                      2                      3
                     A                      A                      A
 Frequencies --   137.0141               233.0681               266.3258
 Red. masses --     2.2482                 1.0959                 2.2850
 Frc consts  --     0.0249                 0.0351                 0.0955
 IR Inten    --     2.5219                 4.9614                 5.1986

                     4                      5                      6
                     A                      A                      A
 Frequencies --   329.6205               459.4887               767.7428
 Red. masses --     1.1992                 4.0730                 1.0758
 Frc consts  --     0.0768                 0.5067                 0.3736
 IR Inten    --   120.2727                 8.9568                 3.0799

                     7                      8                      9
                     A                      A                      A
 Frequencies --   895.7450               900.4401              1038.7351
 Red. masses --     1.6371                 1.2182                 3.3299
 Frc consts  --     0.7739                 0.5820                 2.1168
 IR Inten    --    10.2803                 3.5285                14.4621

                    10                     11                     12
                     A                      A                      A
 Frequencies --  1082.6857              1106.6742              1153.8794
 Red. masses --     3.0941                 1.5297                 1.7299
 Frc consts  --     2.1369                 1.1038                 1.3570
 IR Inten    --   114.9701                 1.2265                 1.8331

                    13                     14                     15
                     A                      A                      A
 Frequencies --  1263.7577              1331.5132              1349.2306
 Red. masses --     1.4064                 1.2162                 1.2095
 Frc consts  --     1.3234                 1.2704                 1.2972
 IR Inten    --     6.4991                 1.7797                 4.7386

                    16                     17                     18
                     A                      A                      A
 Frequencies --  1409.9097              1439.3254              1448.6983
 Red. masses --     1.2650                 1.3149                 1.2639
 Frc consts  --     1.4816                 1.6050                 1.5629
 IR Inten    --    16.8659                 3.8719                35.1296

                    19                     20                     21
                     A                      A                      A
 Frequencies --  1519.3546              1531.3054              1533.5557
 Red. masses --     1.0626                 1.0400                 1.0720
 Frc consts  --     1.4452                 1.4369                 1.4854
 IR Inten    --     0.4092                 6.3139                 2.7413

                    22                     23                     24
                     A                      A                      A
 Frequencies --  1547.2129              2982.2668              3019.2858
 Red. masses --     1.0917                 1.0725                 1.0679
 Frc consts  --     1.5397                 5.6202                 5.7355
 IR Inten    --     1.6145                68.2222                30.6407

                    25                     26                     27
                     A                      A                      A
 Frequencies --  3045.3959              3072.1900              3092.4439
 Red. masses --     1.0365                 1.0906                 1.0958
 Frc consts  --     5.6637                 6.0648                 6.1743
 IR Inten    --    27.2338                15.1171                22.5331

                    28                     29                     30
                     A                      A                      A
 Frequencies --  3110.5731              3118.8770              3738.4680
 Red. masses --     1.1025                 1.1016                 1.0661
 Frc consts  --     6.2850                 6.3133                 8.7786
 IR Inten    --    76.9919                35.5548                 8.1991

 - Thermochemistry -
 -------------------
 Temperature   298.150 Kelvin.  Pressure   1.00000 Atm.
 Atom     1 has atomic number  6 and mass  12.00000

 Molecular mass:    60.05751 amu.
 Principal axes and moments of inertia in atomic units:
                           1         2         3
     Eigenvalues --    69.12530 483.63145 514.90080
           X            0.99994  -0.00499  -0.01017
           Y            0.00534   0.99940   0.03415
           Z            0.00999  -0.03420   0.99937
 This molecule is an asymmetric top.
 Rotational symmetry number  1.
 Rotational temperatures (Kelvin)      1.25300     0.17909     0.16821
 Rotational constants (GHZ):          26.10826     3.73165     3.50503
 Zero-point vibrational energy     286653.9 (Joules/Mol)
                                   68.51192 (Kcal/Mol)
 Warning -- explicit consideration of   5 degrees of freedom as
           vibrations may cause significant error
 Vibrational temperatures:    197.13   335.33   383.18   474.25   661.10
          (Kelvin)           1104.61  1288.78  1295.53  1494.51  1557.74
                             1592.26  1660.17  1818.26  1915.75  1941.24
                             2028.54  2070.87  2084.35  2186.01  2203.20
                             2206.44  2226.09  4290.81  4344.07  4381.64
                             4420.19  4449.33  4475.42  4487.36  5378.81

 Zero-point correction=                           0.109181 (Hartree/Particle)
 Thermal correction to Energy=                    0.114663
 Thermal correction to Enthalpy=                  0.115607
 Thermal correction to Gibbs Free Energy=         0.081471
 Sum of electronic and zero-point Energies=           -194.238975
 Sum of electronic and thermal Energies=              -194.233493
 Sum of electronic and thermal Enthalpies=            -194.232549
 Sum of electronic and thermal Free Energies=         -194.266685

                     E (Thermal)             CV                S
                      KCal/Mol        Cal/Mol-Kelvin    Cal/Mol-Kelvin
 Total                   71.952             18.192             71.846
 Electronic               0.000              0.000              0.000
 Translational            0.889              2.981             38.198
 Rotational               0.889              2.981             24.358
 Vibrational             70.175             12.230              9.290
 Vibration     1          0.614              1.916              2.845
 Vibration     2          0.654              1.790              1.855
 Vibration     3          0.672              1.735              1.620
 Vibration     4          0.712              1.616              1.262
 Vibration     5          0.817              1.340              0.768

 Optimization completed.
    -- Stationary point found.
 Normal termination of Gaussian 09 at Sun Aug 23 11:16:44 2015.
