 Gaussian 09, Revision A.01,
 Gaussian 09:  EM64L-G09RevA.01  8-May-2009

 --------------------------
 #p b3lyp/6-31g(d) opt freq
 --------------------------

 -----------------------------
 using ub3lyp/6-31G(d) to scan
 -----------------------------
 Symbolic Z-matrix:
 Charge =  0 Multiplicity = 1

 SCF Done:  E(RB3LYP) =  -269.479892080     A.U. after   13 cycles
 SCF Done:  E(RB3LYP) =  -269.479894412     A.U. after    9 cycles
 SCF Done:  E(RB3LYP) =  -269.479894967     A.U. after    8 cycles
 SCF Done:  E(RB3LYP) =  -269.479894995     A.U. after    7 cycles
 Optimization completed.
    -- Stationary point found.
 Normal termination of Gaussian 09 at Sun Aug 23 11:16:22 2015.

 --------------------------------------------------------------------
 #P Geom=AllCheck Guess=TCheck SCRF=Check GenChk RB3LYP/6-31G(d) Freq
 --------------------------------------------------------------------

 using ub3lyp/6-31G(d) to scan
 -----------------------------
 Redundant internal coordinates taken from checkpoint file:
 C3H7OOH_1_2_opt_631gd.chk
 Charge =  0 Multiplicity = 1

                         Standard orientation:
 ---------------------------------------------------------------------
 Center     Atomic      Atomic             Coordinates (Angstroms)
 Number     Number       Type             X           Y           Z
 ---------------------------------------------------------------------
      1          6           0       -2.449767   -0.294459    0.011156
      2          1           0       -2.508100   -0.925779    0.905876
      3          1           0       -2.511299   -0.950855   -0.864952
      4          1           0       -3.331981    0.354143    0.003662
      5          6           0       -1.162403    0.537185   -0.004078
      6          1           0       -1.135323    1.178113   -0.893474
      7          1           0       -1.132593    1.203287    0.867135
      8          6           0        0.084082   -0.343475    0.002179
      9          1           0        0.111588   -0.995474   -0.881361
     10          1           0        0.114558   -0.980670    0.899405
     11          8           0        1.205206    0.534781   -0.013605
     12          8           0        2.393086   -0.302380   -0.095994
     13          1           0        2.775342   -0.137476    0.784953
 ---------------------------------------------------------------------

 SCF Done:  E(RB3LYP) =  -269.479894995     A.U. after    1 cycles

 The electronic state is 1-A.
 Alpha  occ. eigenvalues --  -19.19612 -19.19513 -10.23002 -10.18927 -10.18309
 Alpha  occ. eigenvalues --   -1.10646  -0.90758  -0.77564  -0.66668  -0.59297
 Alpha  occ. eigenvalues --   -0.52151  -0.48345  -0.45955  -0.43588  -0.40414
 Alpha  occ. eigenvalues --   -0.38642  -0.36732  -0.34233  -0.33898  -0.29384
 Alpha  occ. eigenvalues --   -0.25653
 Alpha virt. eigenvalues --    0.03139   0.08331   0.09219   0.13692   0.14458
 Alpha virt. eigenvalues --    0.15445   0.17182   0.18539   0.19970   0.20147
 Alpha virt. eigenvalues --    0.24121   0.26564   0.51967   0.54073   0.54259

 Mulliken atomic charges:
              1
     1  C   -0.449884
     2  H    0.146853
     3  H    0.149347
     4  H    0.152911
     5  C   -0.283336
     6  H    0.156006
     7  H    0.148991
     8  C    0.024368
     9  H    0.139961
    10  H    0.118964
    11  O   -0.306841
    12  O   -0.407177
    13  H    0.409837
 Sum of Mulliken atomic charges =   0.00000

 Dipole moment (field-independent basis, Debye):
    X=             -0.9535    Y=             -0.5293    Z=              1.4803  Tot=              1.8386
 Quadrupole moment (field-independent basis, Debye-Ang):
   XX=            -29.7053   YY=            -32.3373   ZZ=            -30.0148
   XY=             -0.6442   XZ=              4.6315   YZ=             -0.1175

  Exact polarizability:  54.021  -2.064  36.920   1.684   0.222  36.692
 Approx polarizability:  63.336  -4.637  52.349   1.210   0.697  51.152

                     1                      2                      3
                     A                      A                      A
 Frequencies --   108.0528               117.1982               192.5442
 Red. masses --     2.7613                 2.4079                 1.3172
 Frc consts  --     0.0190                 0.0195                 0.0288
 IR Inten    --     2.8497                12.9347                72.0359

                     4                      5                      6
                     A                      A                      A
 Frequencies --   194.7815               236.9472               403.4414
 Red. masses --     2.5419                 1.1377                 3.8335
 Frc consts  --     0.0568                 0.0376                 0.3676
 IR Inten    --    39.2580                 0.3122                 1.1708

                     7                      8                      9
                     A                      A                      A
 Frequencies --   455.2683               778.0885               918.4732
 Red. masses --     4.5684                 1.0773                 1.9983
 Frc consts  --     0.5579                 0.3843                 0.9932
 IR Inten    --     6.8004                 1.5807                11.4483

                    10                     11                     12
                     A                      A                      A
 Frequencies --   918.8117               937.6310              1039.6235
 Red. masses --     1.1966                 4.0970                 4.6109
 Frc consts  --     0.5952                 2.1222                 2.9362
 IR Inten    --     2.3368                 7.3808                10.0480

                    13                     14                     15
                     A                      A                      A
 Frequencies --  1058.9502              1163.4263              1203.5333
 Red. masses --     2.7848                 2.5704                 1.5134
 Frc consts  --     1.8399                 2.0499                 1.2916
 IR Inten    --    11.7607                 9.2248                 2.0254

                    16                     17                     18
                     A                      A                      A
 Frequencies --  1269.8189              1325.6561              1347.7545
 Red. masses --     1.2282                 1.1038                 1.3310
 Frc consts  --     1.1668                 1.1429                 1.4245
 IR Inten    --     0.5372                 0.2739                10.3487

                    19                     20                     21
                     A                      A                      A
 Frequencies --  1387.4258              1430.9727              1442.5067
 Red. masses --     1.1448                 1.4668                 1.2259
 Frc consts  --     1.2983                 1.7696                 1.5030
 IR Inten    --    45.2072                 3.9913                 1.4990

                    22                     23                     24
                     A                      A                      A
 Frequencies --  1524.9246              1530.0821              1538.6188
 Red. masses --     1.0515                 1.0401                 1.0824
 Frc consts  --     1.4407                 1.4347                 1.5097
 IR Inten    --     1.8724                 6.6028                 2.2998

                    25                     26                     27
                     A                      A                      A
 Frequencies --  1559.2077              3010.9928              3048.3597
 Red. masses --     1.0895                 1.0608                 1.0374
 Frc consts  --     1.5606                 5.6663                 5.6800
 IR Inten    --     6.8808                40.7393                22.5142

                    28                     29                     30
                     A                      A                      A
 Frequencies --  3054.2410              3059.4510              3090.9501
 Red. masses --     1.0736                 1.0859                 1.1043
 Frc consts  --     5.9008                 5.9887                 6.2159
 IR Inten    --    20.5569                40.7467                 8.3768

                    31                     32                     33
                     A                      A                      A
 Frequencies --  3117.1017              3122.6926              3696.2517
 Red. masses --     1.1040                 1.1016                 1.0688
 Frc consts  --     6.3199                 6.3289                 8.6036
 IR Inten    --    69.7624                33.4273                21.1652

 - Thermochemistry -
 -------------------
 Temperature   298.150 Kelvin.  Pressure   1.00000 Atm.
 Atom     1 has atomic number  6 and mass  12.00000

 Molecular mass:    76.05243 amu.
 Principal axes and moments of inertia in atomic units:
                           1         2         3
     Eigenvalues --    86.31221 864.80961 911.93379
           X            0.99996   0.00169   0.00866
           Y           -0.00159   0.99994  -0.01105
           Z           -0.00867   0.01103   0.99990
 This molecule is an asymmetric top.
 Rotational symmetry number  1.
 Rotational temperatures (Kelvin)      1.00349     0.10015     0.09498
 Rotational constants (GHZ):          20.90945     2.08687     1.97903
 Zero-point vibrational energy     294782.5 (Joules/Mol)
                                   70.45470 (Kcal/Mol)
 Warning -- explicit consideration of   7 degrees of freedom as
           vibrations may cause significant error
 Vibrational temperatures:    155.46   168.62   277.03   280.25   340.91
          (Kelvin)            580.46   655.03  1119.49  1321.48  1321.96
                             1349.04  1495.78  1523.59  1673.91  1731.61
                             1826.98  1907.32  1939.12  1996.19  2058.85
                             2075.44  2194.02  2201.44  2213.73  2243.35
                             4332.14  4385.90  4394.37  4401.86  4447.18
                             4484.81  4492.85  5318.08

 Zero-point correction=                           0.112277 (Hartree/Particle)
 Thermal correction to Energy=                    0.119141
 Thermal correction to Enthalpy=                  0.120086
 Thermal correction to Gibbs Free Energy=         0.082060
 Sum of electronic and zero-point Energies=           -269.367618
 Sum of electronic and thermal Energies=              -269.360754
 Sum of electronic and thermal Enthalpies=            -269.359809
 Sum of electronic and thermal Free Energies=         -269.397835

                     E (Thermal)             CV                S
                      KCal/Mol        Cal/Mol-Kelvin    Cal/Mol-Kelvin
 Total                   74.762             22.293             80.031
 Electronic               0.000              0.000              0.000
 Translational            0.889              2.981             38.902
 Rotational               0.889              2.981             25.724
 Vibrational             72.985             16.331             15.406
 Vibration     1          0.606              1.943              3.304
 Vibration     2          0.608              1.935              3.146
 Vibration     3          0.635              1.850              2.203
 Vibration     4          0.635              1.847              2.182
 Vibration     5          0.656              1.784              1.826
 Vibration     6          0.769              1.463              0.950
 Vibration     7          0.814              1.349              0.780

 Optimization completed.
    -- Stationary point found.
 Normal termination of Gaussian 09 at Sun Aug 23 11:16:44 2015.
