 Gaussian 09, Revision A.01,
 Gaussian 09:  EM64L-G09RevA.01  8-May-2009

 --------------------------
 #p b3lyp/6-31g(d) opt freq
 --------------------------

 -----------------------------
 using ub3lyp/6-31G(d) to scan
 -----------------------------
 Symbolic Z-matrix:
 Charge =  0 Multiplicity = 1

 SCF Done:  E(RB3LYP) =  -269.459517741     A.U. after   13 cycles
 SCF Done:  E(RB3LYP) =  -269.477648328     A.U. after   13 cycles
 SCF Done:  E(RB3LYP) =  -269.479852822     A.U. after   11 cycles
 SCF Done:  E(RB3LYP) =  -269.479972478     A.U. after   11 cycles
 SCF Done:  E(RB3LYP) =  -269.479994857     A.U. after   11 cycles
 SCF Done:  E(RB3LYP) =  -269.479998683     A.U. after    9 cycles
 SCF Done:  E(RB3LYP) =  -269.480017769     A.U. after   10 cycles
 SCF Done:  E(RB3LYP) =  -269.479875955     A.U. after   13 cycles
 SCF Done:  E(RB3LYP) =  -269.480029780     A.U. after   12 cycles
 SCF Done:  E(RB3LYP) =  -269.475561664     A.U. after   13 cycles
 SCF Done:  E(RB3LYP) =  -269.484748791     A.U. after   11 cycles
 SCF Done:  E(RB3LYP) =  -269.484949718     A.U. after   12 cycles
 SCF Done:  E(RB3LYP) =  -269.485134873     A.U. after   12 cycles
 SCF Done:  E(RB3LYP) =  -269.485211358     A.U. after   10 cycles
 SCF Done:  E(RB3LYP) =  -269.485386829     A.U. after   11 cycles
 SCF Done:  E(RB3LYP) =  -269.485468817     A.U. after   12 cycles
 SCF Done:  E(RB3LYP) =  -269.485496097     A.U. after   11 cycles
 SCF Done:  E(RB3LYP) =  -269.485506277     A.U. after    9 cycles
 SCF Done:  E(RB3LYP) =  -269.485507477     A.U. after    8 cycles
 Optimization completed.
    -- Stationary point found.
 Normal termination of Gaussian 09 at Sat Aug 22 22:08:38 2015.

 --------------------------------------------------------------------
 #P Geom=AllCheck Guess=TCheck SCRF=Check GenChk RB3LYP/6-31G(d) Freq
 --------------------------------------------------------------------

 using ub3lyp/6-31G(d) to scan
 -----------------------------
 Redundant internal coordinates taken from checkpoint file:
 C3H7OOH_2_1_opt_631gd.chk
 Charge =  0 Multiplicity = 1

                         Standard orientation:
 ---------------------------------------------------------------------
 Center     Atomic      Atomic             Coordinates (Angstroms)
 Number     Number       Type             X           Y           Z
 ---------------------------------------------------------------------
      1          6           0        0.451277    1.475875    0.103187
      2          1           0        1.252576    2.011833   -0.418062
      3          1           0        0.633289    1.549260    1.182143
      4          1           0       -0.494989    1.972742   -0.130091
      5          6           0        0.408144    0.014150   -0.335385
      6          1           0        0.236151   -0.044501   -1.418872
      7          6           0        1.670039   -0.763426    0.030412
      8          1           0        1.835008   -0.746070    1.113436
      9          1           0        1.588916   -1.805917   -0.291437
     10          1           0        2.540885   -0.312973   -0.457295
     11          8           0       -0.648859   -0.706998    0.317622
     12          8           0       -1.912649   -0.190526   -0.191812
     13          1           0       -2.276527    0.196228    0.624414
 ---------------------------------------------------------------------

 SCF Done:  E(RB3LYP) =  -269.485507477     A.U. after    1 cycles

 The electronic state is 1-A.
 Alpha  occ. eigenvalues --  -19.19503 -19.19415 -10.23740 -10.18104 -10.17712
 Alpha  occ. eigenvalues --   -1.10427  -0.90824  -0.76068  -0.69247  -0.58046
 Alpha  occ. eigenvalues --   -0.52804  -0.46230  -0.45178  -0.44109  -0.39387
 Alpha  occ. eigenvalues --   -0.38903  -0.37330  -0.35616  -0.34100  -0.29590
 Alpha  occ. eigenvalues --   -0.25325
 Alpha virt. eigenvalues --    0.02988   0.07956   0.11426   0.13919   0.14316
 Alpha virt. eigenvalues --    0.15715   0.17447   0.18896   0.19069   0.20715
 Alpha virt. eigenvalues --    0.23812   0.26400   0.49943   0.52426   0.56225

 Mulliken atomic charges:
              1
     1  C   -0.463435
     2  H    0.145319
     3  H    0.144841
     4  H    0.155177
     5  C    0.180658
     6  H    0.135748
     7  C   -0.464365
     8  H    0.155138
     9  H    0.165282
    10  H    0.151474
    11  O   -0.307410
    12  O   -0.409508
    13  H    0.411082
 Sum of Mulliken atomic charges =   0.00000

 Dipole moment (field-independent basis, Debye):
    X=              0.7695    Y=              1.4217    Z=              0.6510  Tot=              1.7428
 Quadrupole moment (field-independent basis, Debye-Ang):
   XX=            -29.0226   YY=            -32.3201   ZZ=            -30.6792
   XY=             -2.4732   XZ=             -3.2399   YZ=              0.6020

  Exact polarizability:  49.746  -2.345  39.267  -0.657   0.324  36.802
 Approx polarizability:  64.969  -2.979  50.515   0.767  -1.160  52.647

                     1                      2                      3
                     A                      A                      A
 Frequencies --   135.3299               207.0609               225.3446
 Red. masses --     4.0534                 1.0464                 1.1009
 Frc consts  --     0.0437                 0.0264                 0.0329
 IR Inten    --     5.5079                 8.5203                90.1241

                     4                      5                      6
                     A                      A                      A
 Frequencies --   255.6027               288.7488               350.6252
 Red. masses --     1.0863                 3.3268                 2.3115
 Frc consts  --     0.0418                 0.1634                 0.1674
 IR Inten    --    30.3153                 4.9802                 0.5763

                     7                      8                      9
                     A                      A                      A
 Frequencies --   470.3403               501.3359               828.2862
 Red. masses --     2.5391                 3.7961                 2.5708
 Frc consts  --     0.3309                 0.5621                 1.0392
 IR Inten    --     4.2885                 5.6141                 3.3547

                    10                     11                     12
                     A                      A                      A
 Frequencies --   910.3065               938.7750               961.2617
 Red. masses --     2.7468                 1.4139                 1.4473
 Frc consts  --     1.3411                 0.7342                 0.7880
 IR Inten    --    10.8310                 1.5604                 2.1373

                    13                     14                     15
                     A                      A                      A
 Frequencies --   962.3951              1151.0766              1186.3193
 Red. masses --     3.8502                 1.8889                 2.0493
 Frc consts  --     2.1011                 1.4746                 1.6993
 IR Inten    --     2.0686                10.5632                32.2089

                    16                     17                     18
                     A                      A                      A
 Frequencies --  1209.0171              1357.7443              1391.3648
 Red. masses --     1.9194                 1.2780                 1.2190
 Frc consts  --     1.6530                 1.3881                 1.3903
 IR Inten    --     4.9468                46.2462                22.8269

                    19                     20                     21
                     A                      A                      A
 Frequencies --  1399.4126              1427.0178              1439.8491
 Red. masses --     1.1981                 1.3916                 1.2533
 Frc consts  --     1.3824                 1.6696                 1.5309
 IR Inten    --     5.0307                19.9466                 6.0161

                    22                     23                     24
                     A                      A                      A
 Frequencies --  1510.4251              1517.6396              1524.8035
 Red. masses --     1.0530                 1.0471                 1.0473
 Frc consts  --     1.4154                 1.4209                 1.4347
 IR Inten    --     1.8630                 2.1759                 2.2816

                    25                     26                     27
                     A                      A                      A
 Frequencies --  1543.5776              3040.0886              3051.9653
 Red. masses --     1.0523                 1.0850                 1.0364
 Frc consts  --     1.4772                 5.9082                 5.6874
 IR Inten    --     5.9730                24.4881                17.0692

                    28                     29                     30
                     A                      A                      A
 Frequencies --  3060.7943              3118.2723              3131.1545
 Red. masses --     1.0353                 1.1024                 1.1020
 Frc consts  --     5.7145                 6.3156                 6.3656
 IR Inten    --    15.6564                14.9349                41.7416

                    31                     32                     33
                     A                      A                      A
 Frequencies --  3137.3044              3140.9954              3706.4986
 Red. masses --     1.1013                 1.1031                 1.0688
 Frc consts  --     6.3865                 6.4119                 8.6508
 IR Inten    --    20.5442                21.6318                23.1660

 - Thermochemistry -
 -------------------
 Temperature   298.150 Kelvin.  Pressure   1.00000 Atm.
 Atom     1 has atomic number  6 and mass  12.00000

 Molecular mass:    76.05243 amu.
 Principal axes and moments of inertia in atomic units:
                           1         2         3
     Eigenvalues --   232.66703 471.77088 638.46531
           X            0.99912  -0.04078  -0.00944
           Y            0.04093   0.99902   0.01677
           Z            0.00875  -0.01714   0.99981
 This molecule is an asymmetric top.
 Rotational symmetry number  1.
 Rotational temperatures (Kelvin)      0.37227     0.18359     0.13566
 Rotational constants (GHZ):           7.75676     3.82546     2.82669
 Zero-point vibrational energy     293568.0 (Joules/Mol)
                                   70.16443 (Kcal/Mol)
 Warning -- explicit consideration of   8 degrees of freedom as
           vibrations may cause significant error
 Vibrational temperatures:    194.71   297.91   324.22   367.75   415.44
          (Kelvin)            504.47   676.71   721.31  1191.72  1309.73
                             1350.69  1383.04  1384.67  1656.14  1706.85
                             1739.50  1953.49  2001.86  2013.44  2053.16
                             2071.62  2173.16  2183.54  2193.85  2220.86
                             4374.00  4391.09  4403.79  4486.49  4505.03
                             4513.88  4519.19  5332.82

 Zero-point correction=                           0.111814 (Hartree/Particle)
 Thermal correction to Energy=                    0.118495
 Thermal correction to Enthalpy=                  0.119439
 Thermal correction to Gibbs Free Energy=         0.082303
 Sum of electronic and zero-point Energies=           -269.373693
 Sum of electronic and thermal Energies=              -269.367012
 Sum of electronic and thermal Enthalpies=            -269.366068
 Sum of electronic and thermal Free Energies=         -269.403204

                     E (Thermal)             CV                S
                      KCal/Mol        Cal/Mol-Kelvin    Cal/Mol-Kelvin
 Total                   74.357             22.934             78.160
 Electronic               0.000              0.000              0.000
 Translational            0.889              2.981             38.902
 Rotational               0.889              2.981             25.753
 Vibrational             72.579             16.972             13.505
 Vibration     1          0.613              1.918              2.869
 Vibration     2          0.641              1.830              2.069
 Vibration     3          0.650              1.802              1.916
 Vibration     4          0.666              1.753              1.692
 Vibration     5          0.685              1.695              1.481
 Vibration     6          0.728              1.574              1.163
 Vibration     7          0.827              1.316              0.737
 Vibration     8          0.857              1.247              0.655

 Optimization completed.
    -- Stationary point found.
 Normal termination of Gaussian 09 at Sat Aug 22 22:08:52 2015.
