 Gaussian 09, Revision A.01,
 Gaussian 09:  EM64L-G09RevA.01  8-May-2009

 --------------------------
 #p b3lyp/6-31g(d) opt freq
 --------------------------

 -----------------------------
 using ub3lyp/6-31G(d) to scan
 -----------------------------
 Symbolic Z-matrix:
 Charge =  0 Multiplicity = 1

 SCF Done:  E(RB3LYP) =  -233.654447707     A.U. after   13 cycles
 SCF Done:  E(RB3LYP) =  -233.660722733     A.U. after   11 cycles
 SCF Done:  E(RB3LYP) =  -233.661071878     A.U. after   10 cycles
 SCF Done:  E(RB3LYP) =  -233.661086095     A.U. after    8 cycles
 Optimization completed.
    -- Stationary point found.
 Normal termination of Gaussian 09 at Sat Aug 22 22:06:03 2015.

 --------------------------------------------------------------------
 #P Geom=AllCheck Guess=TCheck SCRF=Check GenChk RB3LYP/6-31G(d) Freq
 --------------------------------------------------------------------

 using ub3lyp/6-31G(d) to scan
 -----------------------------
 Redundant internal coordinates taken from checkpoint file:
 C4H9OH_1_1_opt_631gd.chk
 Charge =  0 Multiplicity = 1

                         Standard orientation:
 ---------------------------------------------------------------------
 Center     Atomic      Atomic             Coordinates (Angstroms)
 Number     Number       Type             X           Y           Z
 ---------------------------------------------------------------------
      1          6           0        2.520240   -0.296416   -0.000004
      2          1           0        2.576200   -0.942491   -0.884678
      3          1           0        2.576246   -0.942416    0.884721
      4          1           0        3.407223    0.347519   -0.000056
      5          6           0        1.229679    0.529418    0.000000
      6          1           0        1.219839    1.190503    0.878509
      7          1           0        1.219826    1.190476   -0.878526
      8          6           0       -0.034703   -0.338672    0.000010
      9          1           0       -0.040792   -0.995724    0.880019
     10          1           0       -0.040801   -0.995739   -0.879988
     11          6           0       -1.320352    0.477156    0.000001
     12          1           0       -1.345851    1.132014   -0.887790
     13          1           0       -1.345862    1.132012    0.887793
     14          8           0       -2.419877   -0.429714   -0.000004
     15          1           0       -3.236197    0.092650   -0.000014
 ---------------------------------------------------------------------

 SCF Done:  E(RB3LYP) =  -233.661086095     A.U. after    1 cycles

 The electronic state is 1-A.
 Alpha  occ. eigenvalues --  -19.13687 -10.22527 -10.18110 -10.17403 -10.17241
 Alpha  occ. eigenvalues --   -1.00816  -0.78839  -0.71388  -0.62046  -0.57638
 Alpha  occ. eigenvalues --   -0.50095  -0.47551  -0.42744  -0.42388  -0.39468
 Alpha  occ. eigenvalues --   -0.36164  -0.35086  -0.33245  -0.32441  -0.31624
 Alpha  occ. eigenvalues --   -0.26112
 Alpha virt. eigenvalues --    0.07796   0.09456   0.12858   0.13135   0.14881
 Alpha virt. eigenvalues --    0.17665   0.18527   0.18684   0.19593   0.20449
 Alpha virt. eigenvalues --    0.20944   0.25085   0.26246   0.28398   0.50850

 Mulliken atomic charges:
              1
     1  C   -0.439589
     2  H    0.143908
     3  H    0.143908
     4  H    0.141736
     5  C   -0.255747
     6  H    0.131041
     7  H    0.131041
     8  C   -0.253095
     9  H    0.143171
    10  H    0.143171
    11  C   -0.027554
    12  H    0.114331
    13  H    0.114331
    14  O   -0.620192
    15  H    0.389539
 Sum of Mulliken atomic charges =   0.00000

 Dipole moment (field-independent basis, Debye):
    X=             -0.1478    Y=              1.5163    Z=              0.0000  Tot=              1.5234
 Quadrupole moment (field-independent basis, Debye-Ang):
   XX=            -29.7192   YY=            -33.9041   ZZ=            -32.9369
   XY=             -3.9644   XZ=              0.0001   YZ=              0.0000

  Exact polarizability:  56.246  -0.639  44.378   0.000   0.000  41.959
 Approx polarizability:  63.185   0.738  61.558   0.000   0.000  59.421

                     1                      2                      3
                     A                      A                      A
 Frequencies --   115.7229               119.9864               185.9657
 Red. masses --     2.0116                 2.2645                 3.0488
 Frc consts  --     0.0159                 0.0192                 0.0621
 IR Inten    --     2.4455                 3.7844                 2.4217

                     4                      5                      6
                     A                      A                      A
 Frequencies --   249.4891               290.8267               394.6751
 Red. masses --     1.1272                 1.0821                 3.1666
 Frc consts  --     0.0413                 0.0539                 0.2906
 IR Inten    --     0.8699               122.6314                 0.1004

                     7                      8                      9
                     A                      A                      A
 Frequencies --   438.9972               755.1390               825.3923
 Red. masses --     3.6192                 1.0713                 1.1297
 Frc consts  --     0.4109                 0.3599                 0.4534
 IR Inten    --    12.8310                 1.9554                 1.4442

                    10                     11                     12
                     A                      A                      A
 Frequencies --   912.2235               967.6704              1008.8538
 Red. masses --     1.8229                 1.1420                 3.3571
 Frc consts  --     0.8938                 0.6301                 2.0131
 IR Inten    --    13.4006                 0.0761                 0.8267

                    13                     14                     15
                     A                      A                      A
 Frequencies --  1065.9252              1077.0359              1126.2910
 Red. masses --     2.2486                 4.1810                 1.9141
 Frc consts  --     1.5053                 2.8575                 1.4306
 IR Inten    --    27.6566                60.5368                 1.7067

                    16                     17                     18
                     A                      A                      A
 Frequencies --  1201.8201              1259.7378              1262.4782
 Red. masses --     1.5820                 1.2642                 1.3177
 Frc consts  --     1.3462                 1.1821                 1.2374
 IR Inten    --     2.3296                50.5743                 0.1084

                    19                     20                     21
                     A                      A                      A
 Frequencies --  1330.8993              1332.8012              1341.6833
 Red. masses --     1.1396                 1.3225                 1.0796
 Frc consts  --     1.1893                 1.3841                 1.1450
 IR Inten    --     1.0177                18.9733                 0.0365

                    22                     23                     24
                     A                      A                      A
 Frequencies --  1413.1787              1441.5533              1481.6338
 Red. masses --     1.5192                 1.2494                 1.4844
 Frc consts  --     1.7875                 1.5297                 1.9199
 IR Inten    --     3.7698                 1.4683                 9.9670

                    25                     26                     27
                     A                      A                      A
 Frequencies --  1520.4389              1527.8801              1529.3786
 Red. masses --     1.0637                 1.0748                 1.0408
 Frc consts  --     1.4488                 1.4783                 1.4344
 IR Inten    --     0.2946                 0.4868                 5.9194

                    28                     29                     30
                     A                      A                      A
 Frequencies --  1541.0859              1559.6961              2973.3205
 Red. masses --     1.0822                 1.0905                 1.0545
 Frc consts  --     1.5143                 1.5630                 5.4925
 IR Inten    --     4.3980                 2.9890                57.7058

                    31                     32                     33
                     A                      A                      A
 Frequencies --  2997.2026              3023.7647              3040.4525
 Red. masses --     1.1074                 1.0594                 1.0468
 Frc consts  --     5.8614                 5.7071                 5.7013
 IR Inten    --    62.0257                25.2845                18.0102

                    34                     35                     36
                     A                      A                      A
 Frequencies --  3044.8120              3049.2559              3084.9983
 Red. masses --     1.0479                 1.1023                 1.1056
 Frc consts  --     5.7236                 6.0384                 6.1994
 IR Inten    --    56.2545                 7.1373                40.8405

                    37                     38                     39
                     A                      A                      A
 Frequencies --  3108.7118              3111.5588              3749.9634
 Red. masses --     1.1030                 1.1021                 1.0664
 Frc consts  --     6.2802                 6.2869                 8.8353
 IR Inten    --    71.3902                42.5471                 9.5408

 - Thermochemistry -
 -------------------
 Temperature   298.150 Kelvin.  Pressure   1.00000 Atm.
 Atom     1 has atomic number  6 and mass  12.00000

 Molecular mass:    74.07317 amu.
 Principal axes and moments of inertia in atomic units:
                           1         2         3
     Eigenvalues --    96.54578 918.72333 970.39572
           X            0.99986  -0.01701   0.00000
           Y            0.01701   0.99986   0.00000
           Z            0.00000   0.00000   1.00000
 This molecule is an asymmetric top.
 Rotational symmetry number  1.
 Rotational temperatures (Kelvin)      0.89713     0.09428     0.08926
 Rotational constants (GHZ):          18.69311     1.96440     1.85980
 Zero-point vibrational energy     361646.1 (Joules/Mol)
                                   86.43548 (Kcal/Mol)
 Warning -- explicit consideration of   7 degrees of freedom as
           vibrations may cause significant error
 Vibrational temperatures:    166.50   172.63   267.56   358.96   418.43
          (Kelvin)            567.85   631.62  1086.48  1187.55  1312.48
                             1392.26  1451.51  1533.63  1549.61  1620.48
                             1729.15  1812.48  1816.42  1914.86  1917.60
                             1930.38  2033.25  2074.07  2131.74  2187.57
                             2198.28  2200.43  2217.28  2244.05  4277.94
                             4312.30  4350.52  4374.53  4380.80  4387.19
                             4438.62  4472.74  4476.83  5395.35

 Zero-point correction=                           0.137744 (Hartree/Particle)
 Thermal correction to Energy=                    0.144551
 Thermal correction to Enthalpy=                  0.145495
 Thermal correction to Gibbs Free Energy=         0.107690
 Sum of electronic and zero-point Energies=           -233.523342
 Sum of electronic and thermal Energies=              -233.516535
 Sum of electronic and thermal Enthalpies=            -233.515591
 Sum of electronic and thermal Free Energies=         -233.553396

                     E (Thermal)             CV                S
                      KCal/Mol        Cal/Mol-Kelvin    Cal/Mol-Kelvin
 Total                   90.707             23.023             79.567
 Electronic               0.000              0.000              0.000
 Translational            0.889              2.981             38.823
 Rotational               0.889              2.981             25.957
 Vibrational             88.930             17.061             14.787
 Vibration     1          0.608              1.936              3.171
 Vibration     2          0.609              1.933              3.101
 Vibration     3          0.632              1.859              2.268
 Vibration     4          0.662              1.764              1.734
 Vibration     5          0.687              1.691              1.469
 Vibration     6          0.762              1.482              0.982
 Vibration     7          0.799              1.385              0.830

 Optimization completed.
    -- Stationary point found.
 Normal termination of Gaussian 09 at Sat Aug 22 22:06:35 2015.
