 Gaussian 09, Revision A.01,
 Gaussian 09:  EM64L-G09RevA.01  8-May-2009

 --------------------------
 #p b3lyp/6-31g(d) opt freq
 --------------------------

 -----------------------------
 using ub3lyp/6-31G(d) to scan
 -----------------------------
 Symbolic Z-matrix:
 Charge =  0 Multiplicity = 1

 SCF Done:  E(RB3LYP) =  -233.663206593     A.U. after   13 cycles
 SCF Done:  E(RB3LYP) =  -233.663206762     A.U. after    7 cycles
 SCF Done:  E(RB3LYP) =  -233.663206832     A.U. after    7 cycles
 SCF Done:  E(RB3LYP) =  -233.663206856     A.U. after    7 cycles
 Optimization completed.
    -- Stationary point found.
 Normal termination of Gaussian 09 at Sun Aug 23 11:16:25 2015.

 --------------------------------------------------------------------
 #P Geom=AllCheck Guess=TCheck SCRF=Check GenChk RB3LYP/6-31G(d) Freq
 --------------------------------------------------------------------

 using ub3lyp/6-31G(d) to scan
 -----------------------------
 Redundant internal coordinates taken from checkpoint file:
 C4H9OH_1_2_2_opt_631gd.chk
 Charge =  0 Multiplicity = 1

                         Standard orientation:
 ---------------------------------------------------------------------
 Center     Atomic      Atomic             Coordinates (Angstroms)
 Number     Number       Type             X           Y           Z
 ---------------------------------------------------------------------
      1          6           0        1.715489   -0.789817   -0.004082
      2          1           0        1.646774   -1.825728   -0.358140
      3          1           0        1.889940   -0.817515    1.079386
      4          1           0        2.597874   -0.335377   -0.468513
      5          6           0        0.446264    0.007742   -0.333837
      6          1           0        0.315018   -0.002833   -1.429264
      7          6           0       -0.787505   -0.674311    0.275989
      8          1           0       -0.717388   -0.658728    1.370288
      9          1           0       -0.819367   -1.732380   -0.033857
     10          6           0        0.555871    1.468153    0.120831
     11          1           0       -0.372277    2.010052   -0.083630
     12          1           0        0.743472    1.523931    1.201317
     13          1           0        1.379740    1.982030   -0.387981
     14          8           0       -2.014087   -0.019035   -0.031224
     15          1           0       -2.131807   -0.061776   -0.993219
 ---------------------------------------------------------------------

 SCF Done:  E(RB3LYP) =  -233.663206856     A.U. after    1 cycles

 The electronic state is 1-A.
 Alpha  occ. eigenvalues --  -19.14010 -10.22389 -10.18857 -10.17639 -10.16819
 Alpha  occ. eigenvalues --   -1.01123  -0.79511  -0.68088  -0.66836  -0.57205
 Alpha  occ. eigenvalues --   -0.49149  -0.46683  -0.43910  -0.40837  -0.39527
 Alpha  occ. eigenvalues --   -0.38136  -0.35951  -0.33891  -0.33002  -0.31240
 Alpha  occ. eigenvalues --   -0.26139
 Alpha virt. eigenvalues --    0.07283   0.09552   0.12929   0.14807   0.15663
 Alpha virt. eigenvalues --    0.15918   0.17532   0.18165   0.18627   0.21276
 Alpha virt. eigenvalues --    0.23697   0.24502   0.25793   0.26793   0.51020

 Mulliken atomic charges:
              1
     1  C   -0.447781
     2  H    0.140483
     3  H    0.143136
     4  H    0.146307
     5  C   -0.095954
     6  H    0.110832
     7  C   -0.021563
     8  H    0.141022
     9  H    0.116268
    10  C   -0.436640
    11  H    0.157435
    12  H    0.138081
    13  H    0.137125
    14  O   -0.614181
    15  H    0.385432
 Sum of Mulliken atomic charges =   0.00000

 Dipole moment (field-independent basis, Debye):
    X=              0.9776    Y=             -0.5788    Z=             -1.2078  Tot=              1.6582
 Quadrupole moment (field-independent basis, Debye-Ang):
   XX=            -36.1853   YY=            -33.2992   ZZ=            -30.7641
   XY=              0.7321   XZ=              3.1655   YZ=             -0.0787

  Exact polarizability:  49.334  -0.698  47.174   1.147  -0.153  44.526
 Approx polarizability:  62.341  -1.380  60.112   1.439  -0.023  64.117

                     1                      2                      3
                     A                      A                      A
 Frequencies --   134.4294               221.1986               237.0907
 Red. masses --     2.1848                 1.0683                 1.2481
 Frc consts  --     0.0233                 0.0308                 0.0413
 IR Inten    --     3.1481                 0.4984                 0.9066

                     4                      5                      6
                     A                      A                      A
 Frequencies --   264.2762               315.8312               348.6706
 Red. masses --     1.9945                 1.1761                 2.2479
 Frc consts  --     0.0821                 0.0691                 0.1610
 IR Inten    --     2.9253               116.4690                 0.8484

                     7                      8                      9
                     A                      A                      A
 Frequencies --   434.3063               494.0221               823.6218
 Red. masses --     1.7989                 3.4680                 2.6483
 Frc consts  --     0.1999                 0.4987                 1.0585
 IR Inten    --    15.0966                 9.7218                 3.2972

                    10                     11                     12
                     A                      A                      A
 Frequencies --   909.6648               941.9910               960.1888
 Red. masses --     1.4224                 1.2512                 1.5369
 Frc consts  --     0.6935                 0.6541                 0.8348
 IR Inten    --     8.9371                 1.1981                 2.6423

                    13                     14                     15
                     A                      A                      A
 Frequencies --   979.3182              1075.3475              1123.1514
 Red. masses --     1.5402                 3.7301                 1.3680
 Frc consts  --     0.8703                 2.5414                 1.0167
 IR Inten    --     3.1199               119.6496                 2.9861

                    16                     17                     18
                     A                      A                      A
 Frequencies --  1155.0904              1211.1451              1265.2851
 Red. masses --     2.1775                 1.7262                 1.5386
 Frc consts  --     1.7118                 1.4919                 1.4513
 IR Inten    --     0.6745                 0.2466                 8.0760

                    19                     20                     21
                     A                      A                      A
 Frequencies --  1343.3975              1389.4868              1408.1793
 Red. masses --     1.2426                 1.3688                 1.2963
 Frc consts  --     1.3213                 1.5571                 1.5145
 IR Inten    --     2.9977                 3.1109                14.1881

                    22                     23                     24
                     A                      A                      A
 Frequencies --  1426.2756              1431.3130              1453.4753
 Red. masses --     1.2544                 1.3009                 1.2421
 Frc consts  --     1.5034                 1.5702                 1.5461
 IR Inten    --    22.6733                 3.5492                19.7603

                    25                     26                     27
                     A                      A                      A
 Frequencies --  1519.2243              1520.0506              1532.9716
 Red. masses --     1.0543                 1.0487                 1.0544
 Frc consts  --     1.4337                 1.4276                 1.4599
 IR Inten    --     2.6339                 0.2302                 5.0589

                    28                     29                     30
                     A                      A                      A
 Frequencies --  1536.1278              1542.1988              2982.1132
 Red. masses --     1.0723                 1.0575                 1.0809
 Frc consts  --     1.4908                 1.4819                 5.6633
 IR Inten    --     1.3759                 9.8966                42.4649

                    31                     32                     33
                     A                      A                      A
 Frequencies --  2991.4499              3038.9056              3043.9796
 Red. masses --     1.0719                 1.0364                 1.0386
 Frc consts  --     5.6514                 5.6389                 5.6699
 IR Inten    --    63.8330                30.2119                20.4206

                    34                     35                     36
                     A                      A                      A
 Frequencies --  3082.7486              3100.7238              3105.2933
 Red. masses --     1.0938                 1.1013                 1.1009
 Frc consts  --     6.1246                 6.2383                 6.2545
 IR Inten    --    26.0200                16.3312                66.1786

                    37                     38                     39
                     A                      A                      A
 Frequencies --  3113.2452              3134.0608              3735.1669
 Red. masses --     1.1016                 1.1004                 1.0660
 Frc consts  --     6.2906                 6.3680                 8.7628
 IR Inten    --    43.8362                21.7184                 9.0559

 - Thermochemistry -
 -------------------
 Temperature   298.150 Kelvin.  Pressure   1.00000 Atm.
 Atom     1 has atomic number  6 and mass  12.00000

 Molecular mass:    74.07317 amu.
 Principal axes and moments of inertia in atomic units:
                           1         2         3
     Eigenvalues --   240.36729 520.01832 685.30251
           X            0.99994  -0.00351   0.01057
           Y            0.00350   0.99999   0.00087
           Z           -0.01058  -0.00083   0.99994
 This molecule is an asymmetric top.
 Rotational symmetry number  1.
 Rotational temperatures (Kelvin)      0.36034     0.16656     0.12639
 Rotational constants (GHZ):           7.50826     3.47053     2.63350
 Zero-point vibrational energy     360823.7 (Joules/Mol)
                                   86.23894 (Kcal/Mol)
 Warning -- explicit consideration of   8 degrees of freedom as
           vibrations may cause significant error
 Vibrational temperatures:    193.41   318.26   341.12   380.23   454.41
          (Kelvin)            501.66   624.87   710.79  1185.01  1308.80
                             1355.31  1381.50  1409.02  1547.18  1615.96
                             1661.92  1742.57  1820.46  1932.85  1999.16
                             2026.05  2052.09  2059.34  2091.22  2185.82
                             2187.01  2205.60  2210.14  2218.88  4290.59
                             4304.02  4372.30  4379.60  4435.38  4461.24
                             4467.82  4479.26  4509.21  5374.07

 Zero-point correction=                           0.137431 (Hartree/Particle)
 Thermal correction to Energy=                    0.144120
 Thermal correction to Enthalpy=                  0.145065
 Thermal correction to Gibbs Free Energy=         0.107937
 Sum of electronic and zero-point Energies=           -233.525776
 Sum of electronic and thermal Energies=              -233.519086
 Sum of electronic and thermal Enthalpies=            -233.518142
 Sum of electronic and thermal Free Energies=         -233.555270

                     E (Thermal)             CV                S
                      KCal/Mol        Cal/Mol-Kelvin    Cal/Mol-Kelvin
 Total                   90.437             23.581             78.142
 Electronic               0.000              0.000              0.000
 Translational            0.889              2.981             38.823
 Rotational               0.889              2.981             25.952
 Vibrational             88.659             17.620             13.367
 Vibration     1          0.613              1.919              2.882
 Vibration     2          0.648              1.809              1.949
 Vibration     3          0.656              1.784              1.825
 Vibration     4          0.671              1.738              1.633
 Vibration     5          0.703              1.643              1.332
 Vibration     6          0.726              1.578              1.172
 Vibration     7          0.795              1.395              0.845
 Vibration     8          0.850              1.263              0.673

 Optimization completed.
    -- Stationary point found.
 Normal termination of Gaussian 09 at Sun Aug 23 11:16:54 2015.
