 Gaussian 09, Revision D.01,
 Gaussian 09:  ES64L-G09RevD.01 24-Apr-2013

 -------------------------
 # m062x/def2tzvp opt freq
 -------------------------

 -------------------
 Title Card Required
 -------------------
 Symbolic Z-matrix:
 Charge =  0 Multiplicity = 3

 SCF Done:  E(UM062X) =  -150.325918650     A.U. after   12 cycles
 SCF Done:  E(UM062X) =  -150.327149173     A.U. after   10 cycles
 SCF Done:  E(UM062X) =  -150.327189402     A.U. after    7 cycles
 Optimization completed.
    -- Stationary point found.
 Normal termination of Gaussian 09 at Sat Aug  8 16:37:41 2015.

 --------------------------------------------------------------------
 #N Geom=AllCheck Guess=TCheck SCRF=Check GenChk UM062X/def2TZVP Freq
 --------------------------------------------------------------------

 Structure from the checkpoint file:  "/state/partition1/Gau-4549.chk"
 -------------------
 Title Card Required
 -------------------
 Charge =  0 Multiplicity = 3

                         Standard orientation:
 ---------------------------------------------------------------------
 Center     Atomic      Atomic             Coordinates (Angstroms)
 Number     Number       Type             X           Y           Z
 ---------------------------------------------------------------------
      1          8           0        0.000000    0.000000    0.594091
      2          8           0        0.000000    0.000000   -0.594091
 ---------------------------------------------------------------------

 SCF Done:  E(UM062X) =  -150.327189402     A.U. after    1 cycles

 The electronic state is 3-SGG.
 Alpha  occ. eigenvalues --  -19.78767 -19.78727  -1.46322  -0.96049  -0.67809
 Alpha  occ. eigenvalues --   -0.67809  -0.64784  -0.39555  -0.39555
 Alpha virt. eigenvalues --    0.24766   0.37068   0.41493   0.41493   0.47377
 Alpha virt. eigenvalues --    0.49862   0.53263   0.53263   0.78558   1.26102
 Alpha virt. eigenvalues --    1.26110   1.35427   1.35427   1.67040   1.67057

  Beta  occ. eigenvalues --  -19.76322 -19.76246  -1.39192  -0.85287  -0.59490
  Beta  occ. eigenvalues --   -0.54402  -0.54402
  Beta virt. eigenvalues --   -0.04845  -0.04845   0.26423   0.36983   0.43165
  Beta virt. eigenvalues --    0.43165   0.46343   0.52615   0.54970   0.54970
  Beta virt. eigenvalues --    0.79072   1.28476   1.28480   1.39027   1.39027

 Mulliken charges and spin densities:
               1          2
     1  O    0.000000   1.000000
     2  O    0.000000   1.000000
 Sum of Mulliken charges =   0.00000   2.00000

 Dipole moment (field-independent basis, Debye):
    X=              0.0000    Y=              0.0000    Z=              0.0000  Tot=              0.0000
 Quadrupole moment (field-independent basis, Debye-Ang):
   XX=             -9.9788   YY=             -9.9788   ZZ=            -10.5204
   XY=              0.0000   XZ=              0.0000   YZ=              0.0000

  Exact polarizability:   5.438   0.000   5.438   0.000   0.000  13.965
 Approx polarizability:   5.885   0.000   5.885   0.000   0.000  18.005

                      1
                     SGG
 Frequencies --   1769.5105
 Red. masses --     15.9949
 Frc consts  --     29.5079
 IR Inten    --      0.0000

 - Thermochemistry -
 -------------------
 Temperature   298.150 Kelvin.  Pressure   1.00000 Atm.
 Atom     1 has atomic number  8 and mass  15.99491

 Molecular mass:    31.98983 amu.
 Principal axes and moments of inertia in atomic units:
                           1         2         3
     Eigenvalues --     0.00000  40.31948  40.31948
           X            0.00000   1.00000   0.00000
           Y            0.00000   0.00000   1.00000
           Z            1.00000   0.00000   0.00000
 This molecule is a prolate symmetric top.
 Rotational symmetry number  2.
 Rotational temperature (Kelvin)      2.14819
 Rotational constant (GHZ):          44.761020
 Zero-point vibrational energy      10584.0 (Joules/Mol)
                                    2.52964 (Kcal/Mol)
 Vibrational temperatures:   2545.93
          (Kelvin)

 Zero-point correction=                           0.004031 (Hartree/Particle)
 Thermal correction to Energy=                    0.006393
 Thermal correction to Enthalpy=                  0.007337
 Thermal correction to Gibbs Free Energy=        -0.015906
 Sum of electronic and zero-point Energies=           -150.323158
 Sum of electronic and thermal Energies=              -150.320796
 Sum of electronic and thermal Enthalpies=            -150.319852
 Sum of electronic and thermal Free Energies=         -150.343095

                     E (Thermal)             CV                S
                      KCal/Mol        Cal/Mol-Kelvin    Cal/Mol-Kelvin
 Total                    4.012              4.996             48.920
 Electronic               0.000              0.000              2.183
 Translational            0.889              2.981             36.321
 Rotational               0.592              1.987             10.413
 Vibrational              2.531              0.028              0.004

 Optimization completed.
    -- Stationary point found.
 Normal termination of Gaussian 09 at Sat Aug  8 16:37:58 2015.
