 Gaussian 09, Revision A.01,
 Gaussian 09:  EM64L-G09RevA.01  8-May-2009

 ------------------------
 #p ub3lyp/cbsb7 opt freq
 ------------------------

 -----------------------------
 using ub3lyp/6-31G(d) to scan
 -----------------------------
 Symbolic Z-matrix:
 Charge =  0 Multiplicity = 2

 SCF Done:  E(UB3LYP) =  -268.892176763     A.U. after   15 cycles
 SCF Done:  E(UB3LYP) =  -268.892242479     A.U. after   12 cycles
 SCF Done:  E(UB3LYP) =  -268.892268781     A.U. after   10 cycles
 SCF Done:  E(UB3LYP) =  -268.892273283     A.U. after   10 cycles
 SCF Done:  E(UB3LYP) =  -268.892273953     A.U. after    8 cycles
 SCF Done:  E(UB3LYP) =  -268.892274086     A.U. after    7 cycles
 SCF Done:  E(UB3LYP) =  -268.892274201     A.U. after    8 cycles
 SCF Done:  E(UB3LYP) =  -268.892274398     A.U. after    8 cycles
 SCF Done:  E(UB3LYP) =  -268.892274666     A.U. after   10 cycles
 SCF Done:  E(UB3LYP) =  -268.892274771     A.U. after    9 cycles
 SCF Done:  E(UB3LYP) =  -268.892274775     A.U. after    7 cycles
 Optimization completed.
    -- Stationary point found.
 Normal termination of Gaussian 09 at Sat Jun  6 17:54:01 2015.

 ----------------------------------------------------------------------
 #P Geom=AllCheck Guess=TCheck SCRF=Check GenChk UB3LYP/6-311G(2d,d,p)
 Freq
 ----------------------------------------------------------------------

 using ub3lyp/6-31G(d) to scan
 -----------------------------
 Redundant internal coordinates taken from checkpoint file:
 QOOH_1_1_opt_631gd.chk
 Charge =  0 Multiplicity = 2

                         Standard orientation:
 ---------------------------------------------------------------------
 Center     Atomic      Atomic             Coordinates (Angstroms)
 Number     Number       Type             X           Y           Z
 ---------------------------------------------------------------------
      1          8           0        1.841941   -0.719149    0.156835
      2          1           0        2.563483   -0.397813    0.714421
      3          8           0        1.312978    0.549797   -0.322767
      4          6           0       -0.000565    0.690507    0.207206
      5          1           0       -0.268258    1.716253   -0.064860
      6          1           0        0.030695    0.615267    1.301386
      7          6           0       -1.001439   -0.311103   -0.381087
      8          1           0       -1.024002   -0.192171   -1.468389
      9          1           0       -0.599444   -1.317675   -0.188051
     10          6           0       -2.363572   -0.167295    0.201707
     11          1           0       -2.496771   -0.071273    1.273663
     12          1           0       -3.251593   -0.270426   -0.407668
 ---------------------------------------------------------------------

 SCF Done:  E(UB3LYP) =  -268.892274775     A.U. after    1 cycles

 The electronic state is 2-A.
 Alpha  occ. eigenvalues --  -19.17534 -19.16975 -10.22394 -10.17836 -10.17323
 Alpha  occ. eigenvalues --   -1.11970  -0.91865  -0.78262  -0.66638  -0.59943
 Alpha  occ. eigenvalues --   -0.52749  -0.48263  -0.47699  -0.44647  -0.41068
 Alpha  occ. eigenvalues --   -0.39484  -0.37618  -0.35017  -0.31003  -0.27037
 Alpha  occ. eigenvalues --   -0.20952
 Alpha virt. eigenvalues --    0.01175   0.04604   0.05684   0.07913   0.08650
 Alpha virt. eigenvalues --    0.10489   0.13077   0.14945   0.17704   0.22310
 Alpha virt. eigenvalues --    0.23994   0.30840   0.33224   0.33672   0.39217

  Beta  occ. eigenvalues --  -19.17517 -19.16971 -10.22321 -10.17400 -10.16427
  Beta  occ. eigenvalues --   -1.11946  -0.91823  -0.77098  -0.65141  -0.58539
  Beta  occ. eigenvalues --   -0.52674  -0.48080  -0.47334  -0.44080  -0.40554
  Beta  occ. eigenvalues --   -0.38625  -0.37204  -0.34634  -0.30788  -0.26896
  Beta virt. eigenvalues --   -0.05853   0.01234   0.04642   0.06102   0.08077
  Beta virt. eigenvalues --    0.08777   0.10885   0.13213   0.15118   0.18016
  Beta virt. eigenvalues --    0.22587   0.24656   0.31267   0.33893   0.34380

 Mulliken atomic charges:
              1
     1  O   -0.269063
     2  H    0.268225
     3  O   -0.250303
     4  C    0.028427
     5  H    0.121269
     6  H    0.093581
     7  C   -0.226462
     8  H    0.119188
     9  H    0.143599
    10  C   -0.261082
    11  H    0.111892
    12  H    0.120728
 Sum of Mulliken atomic charges =   0.00000

 Dipole moment (field-independent basis, Debye):
    X=             -0.1416    Y=              0.4944    Z=              1.4072  Tot=              1.4982
 Quadrupole moment (field-independent basis, Debye-Ang):
   XX=            -28.2751   YY=            -32.4913   ZZ=            -30.0748
   XY=             -0.0782   XZ=              4.1436   YZ=              0.0713

  Exact polarizability:  53.715  -2.893  38.498   1.411   0.147  38.644
 Approx polarizability:  63.798  -5.853  56.559   1.317  -1.950  53.368

                     1                      2                      3
                     A                      A                      A
 Frequencies --    81.8565               105.6982               155.9836
 Red. masses --     1.0827                 2.2957                 2.6387
 Frc consts  --     0.0043                 0.0151                 0.0378
 IR Inten    --     2.7570                 0.0958                 7.0364

                     4                      5                      6
                     A                      A                      A
 Frequencies --   198.6699               278.9221               373.4536
 Red. masses --     1.2131                 2.6716                 3.0237
 Frc consts  --     0.0282                 0.1225                 0.2485
 IR Inten    --   114.2344                 8.6331                 4.0620

                     7                      8                      9
                     A                      A                      A
 Frequencies --   494.3744               539.7969               752.6135
 Red. masses --     1.3841                 4.0246                 1.1608
 Frc consts  --     0.1993                 0.6909                 0.3874
 IR Inten    --    56.5935                 1.3816                 3.5072

                    10                     11                     12
                     A                      A                      A
 Frequencies --   869.4837               884.7872               995.3808
 Red. masses --     3.4614                 1.7217                 3.6402
 Frc consts  --     1.5418                 0.7941                 2.1250
 IR Inten    --    18.2730                 4.3727                 6.5390

                    13                     14                     15
                     A                      A                      A
 Frequencies --  1041.0742              1074.0645              1148.9096
 Red. masses --     3.2614                 2.6743                 1.9313
 Frc consts  --     2.0826                 1.8177                 1.5020
 IR Inten    --    27.2557                 1.0891                 3.0341

                    16                     17                     18
                     A                      A                      A
 Frequencies --  1238.8393              1308.9802              1320.2944
 Red. masses --     1.3140                 1.2446                 1.1458
 Frc consts  --     1.1881                 1.2564                 1.1768
 IR Inten    --     1.2313                 1.4392                 2.4503

                    19                     20                     21
                     A                      A                      A
 Frequencies --  1361.4072              1404.3966              1459.9853
 Red. masses --     1.1370                 1.3350                 1.1145
 Frc consts  --     1.2416                 1.5514                 1.3996
 IR Inten    --    44.8890                35.7957                 0.3015

                    22                     23                     24
                     A                      A                      A
 Frequencies --  1470.5478              1479.7313              2967.1773
 Red. masses --     1.1387                 1.0891                 1.0693
 Frc consts  --     1.4508                 1.4050                 5.5467
 IR Inten    --     0.6594                 5.8420                 9.5111

                    25                     26                     27
                     A                      A                      A
 Frequencies --  3005.9098              3056.6003              3078.5806
 Red. masses --     1.0634                 1.0873                 1.1017
 Frc consts  --     5.6611                 5.9854                 6.1518
 IR Inten    --    41.6808                12.8595                33.8302

                    28                     29                     30
                     A                      A                      A
 Frequencies --  3135.1590              3239.0621              3772.3017
 Red. masses --     1.0518                 1.1173                 1.0688
 Frc consts  --     6.0912                 6.9064                 8.9613
 IR Inten    --    16.7643                14.5780                38.6700

 - Thermochemistry -
 -------------------
 Temperature   298.150 Kelvin.  Pressure   1.00000 Atm.
 Atom     1 has atomic number  8 and mass  15.99491

 Molecular mass:    75.04460 amu.
 Principal axes and moments of inertia in atomic units:
                           1         2         3
     Eigenvalues --   131.09469 702.07060 754.96273
           X            0.99995   0.00293   0.00912
           Y           -0.00351   0.99792   0.06441
           Z           -0.00892  -0.06443   0.99788
 This molecule is an asymmetric top.
 Rotational symmetry number  1.
 Rotational temperatures (Kelvin)      0.66070     0.12337     0.11473
 Rotational constants (GHZ):          13.76670     2.57060     2.39050
 Zero-point vibrational energy     252974.5 (Joules/Mol)
                                   60.46237 (Kcal/Mol)
 Warning -- explicit consideration of   8 degrees of freedom as
           vibrations may cause significant error
 Vibrational temperatures:    117.77   152.08   224.43   285.84   401.31
          (Kelvin)            537.32   711.29   776.65  1082.84  1250.99
                             1273.01  1432.13  1497.87  1545.34  1653.02
                             1782.41  1883.33  1899.61  1958.76  2020.61
                             2100.59  2115.79  2129.00  4269.10  4324.83
                             4397.76  4429.39  4510.79  4660.28  5427.49

 Zero-point correction=                           0.096353 (Hartree/Particle)
 Thermal correction to Energy=                    0.103479
 Thermal correction to Enthalpy=                  0.104423
 Thermal correction to Gibbs Free Energy=         0.065092
 Sum of electronic and zero-point Energies=           -268.795922
 Sum of electronic and thermal Energies=              -268.788796
 Sum of electronic and thermal Enthalpies=            -268.787851
 Sum of electronic and thermal Free Energies=         -268.827183

                     E (Thermal)             CV                S
                      KCal/Mol        Cal/Mol-Kelvin    Cal/Mol-Kelvin
 Total                   64.934             23.264             82.779
 Electronic               0.000              0.000              1.377
 Translational            0.889              2.981             38.862
 Rotational               0.889              2.981             25.744
 Vibrational             63.157             17.302             16.795
 Vibration     1          0.600              1.962              3.846
 Vibration     2          0.605              1.945              3.346
 Vibration     3          0.620              1.896              2.598
 Vibration     4          0.637              1.842              2.145
 Vibration     5          0.679              1.713              1.540
 Vibration     6          0.745              1.527              1.066
 Vibration     7          0.850              1.263              0.672
 Vibration     8          0.895              1.162              0.566

 Optimization completed.
    -- Stationary point found.
 Normal termination of Gaussian 09 at Sat Jun  6 17:55:17 2015.
