 Gaussian 09, Revision A.01,
 Gaussian 09:  EM64L-G09RevA.01  8-May-2009

 -------------------------------------
 #p ub3lyp/cbsb7 opt=(TS, calcfc) freq
 -------------------------------------

 -----------------------------
 using ub3lyp/6-31G(d) to scan
 -----------------------------
 Symbolic Z-matrix:
 Charge =  0 Multiplicity = 2

 SCF Done:  E(UB3LYP) =  -268.881734364     A.U. after   19 cycles
 SCF Done:  E(UB3LYP) =  -268.881747837     A.U. after   12 cycles
 Optimization completed.
    -- Stationary point found.
 Normal termination of Gaussian 09 at Sat Jun  6 17:53:38 2015.

 ----------------------------------------------------------------------
 #P Geom=AllCheck Guess=TCheck SCRF=Check GenChk UB3LYP/6-311G(2d,d,p)
 Freq
 ----------------------------------------------------------------------

 using ub3lyp/6-31G(d) to scan
 -----------------------------
 Redundant internal coordinates taken from checkpoint file:
 ts2_1_opt_631gd.chk
 Charge =  0 Multiplicity = 2

                         Standard orientation:
 ---------------------------------------------------------------------
 Center     Atomic      Atomic             Coordinates (Angstroms)
 Number     Number       Type             X           Y           Z
 ---------------------------------------------------------------------
      1          8           0        1.131243   -1.049268    0.136331
      2          1           0        0.003417   -1.251041   -0.002152
      3          8           0        1.236969    0.264492   -0.372786
      4          6           0        0.275228    1.057933    0.308032
      5          1           0        0.493834    2.089076    0.022087
      6          1           0        0.395128    0.934984    1.389242
      7          6           0       -1.138089    0.627435   -0.154884
      8          1           0       -1.869630    1.203491    0.427637
      9          1           0       -1.252126    0.908867   -1.204088
     10          6           0       -1.345822   -0.854923    0.020540
     11          1           0       -1.822014   -1.394098   -0.794151
     12          1           0       -1.642198   -1.195748    1.010942
 ---------------------------------------------------------------------

 SCF Done:  E(UB3LYP) =  -268.881747837     A.U. after    1 cycles

 The electronic state is 2-A.
 Alpha  occ. eigenvalues --  -19.18730 -19.17105 -10.23508 -10.19357 -10.19331
 Alpha  occ. eigenvalues --   -1.13598  -0.89547  -0.80364  -0.67859  -0.61901
 Alpha  occ. eigenvalues --   -0.53765  -0.50489  -0.46339  -0.46182  -0.41405
 Alpha  occ. eigenvalues --   -0.41056  -0.38047  -0.36705  -0.34051  -0.27022
 Alpha  occ. eigenvalues --   -0.22854
 Alpha virt. eigenvalues --    0.03592   0.04242   0.06693   0.07125   0.08977
 Alpha virt. eigenvalues --    0.11347   0.13381   0.14542   0.18025   0.20375
 Alpha virt. eigenvalues --    0.22531   0.28748   0.29394   0.32114   0.34570

  Beta  occ. eigenvalues --  -19.18475 -19.16005 -10.23444 -10.19355 -10.18420
  Beta  occ. eigenvalues --   -1.12405  -0.87834  -0.79287  -0.66525  -0.60851
  Beta  occ. eigenvalues --   -0.52492  -0.49819  -0.45727  -0.45322  -0.40477
  Beta  occ. eigenvalues --   -0.39249  -0.36921  -0.36115  -0.31966  -0.25554
  Beta virt. eigenvalues --   -0.11508   0.03860   0.05017   0.06813   0.07440
  Beta virt. eigenvalues --    0.09154   0.11475   0.13621   0.14941   0.18665
  Beta virt. eigenvalues --    0.21018   0.23315   0.29123   0.30110   0.32459

 Mulliken atomic charges:
              1
     1  O   -0.227289
     2  H    0.240399
     3  O   -0.201317
     4  C   -0.020181
     5  H    0.124805
     6  H    0.119429
     7  C   -0.229093
     8  H    0.129216
     9  H    0.129235
    10  C   -0.336783
    11  H    0.138999
    12  H    0.132579
 Sum of Mulliken atomic charges =   0.00000

 Dipole moment (field-independent basis, Debye):
    X=             -2.7730    Y=              1.4318    Z=              0.5604  Tot=              3.1708
 Quadrupole moment (field-independent basis, Debye-Ang):
   XX=            -34.0368   YY=            -29.6297   ZZ=            -30.8687
   XY=              1.9924   XZ=              0.6543   YZ=              0.5022

  Exact polarizability:  56.230   4.456  50.664   0.918  -0.155  37.135
 Approx polarizability:  84.297   4.302  73.181  -1.597  -2.890  52.758

 ******    1 imaginary frequencies (negative Signs) ******

                     1                      2                      3
                     A                      A                      A
 Frequencies -- -1638.1045               168.3174               357.6187
 Red. masses --     1.1132                 2.0750                 2.0890
 Frc consts  --     1.7600                 0.0346                 0.1574
 IR Inten    --   355.6279                 0.8887                 4.1341

                     4                      5                      6
                     A                      A                      A
 Frequencies --   439.3019               462.6675               518.1726
 Red. masses --     1.6518                 3.7671                 2.6250
 Frc consts  --     0.1878                 0.4751                 0.4153
 IR Inten    --     3.1188                 1.6497                 0.9400

                     7                      8                      9
                     A                      A                      A
 Frequencies --   635.7904               823.1432               864.4798
 Red. masses --     2.1766                 1.4622                 2.4813
 Frc consts  --     0.5184                 0.5837                 1.0926
 IR Inten    --     5.4035                 2.0916                 6.3116

                    10                     11                     12
                     A                      A                      A
 Frequencies --   898.4770               941.5385              1013.2953
 Red. masses --     2.9709                 1.5505                 2.2840
 Frc consts  --     1.4130                 0.8098                 1.3817
 IR Inten    --    39.5258                 8.0434                 2.5641

                    13                     14                     15
                     A                      A                      A
 Frequencies --  1036.4108              1071.8488              1125.3229
 Red. masses --     3.1409                 1.9952                 1.2165
 Frc consts  --     1.9878                 1.3505                 0.9077
 IR Inten    --     4.0759                 9.9738                12.1060

                    16                     17                     18
                     A                      A                      A
 Frequencies --  1170.7129              1217.6147              1280.4376
 Red. masses --     1.7596                 1.2938                 1.2059
 Frc consts  --     1.4209                 1.1302                 1.1649
 IR Inten    --    10.1034                18.3728                 0.8974

                    19                     20                     21
                     A                      A                      A
 Frequencies --  1345.9852              1371.6353              1452.4832
 Red. masses --     1.2668                 1.2133                 1.1005
 Frc consts  --     1.3522                 1.3449                 1.3680
 IR Inten    --     4.1755                 1.9216                 1.1874

                    22                     23                     24
                     A                      A                      A
 Frequencies --  1471.9852              1479.8614              1585.0095
 Red. masses --     1.0952                 1.1266                 1.0535
 Frc consts  --     1.3981                 1.4536                 1.5593
 IR Inten    --     3.2413                 0.7234                26.9776

                    25                     26                     27
                     A                      A                      A
 Frequencies --  2999.0567              3032.0769              3079.5169
 Red. masses --     1.0677                 1.0609                 1.0937
 Frc consts  --     5.6579                 5.7464                 6.1112
 IR Inten    --    15.6508                42.7069                12.4309

                    28                     29                     30
                     A                      A                      A
 Frequencies --  3092.8956              3105.8223              3181.7558
 Red. masses --     1.0535                 1.1051                 1.1135
 Frc consts  --     5.9378                 6.2804                 6.6419
 IR Inten    --    11.8932                24.9435                12.8507

 - Thermochemistry -
 -------------------
 Temperature   298.150 Kelvin.  Pressure   1.00000 Atm.
 Atom     1 has atomic number  8 and mass  15.99491

 Molecular mass:    75.04460 amu.
 Principal axes and moments of inertia in atomic units:
                           1         2         3
     Eigenvalues --   240.01782 370.03820 544.50928
           X            0.99778   0.06545   0.01194
           Y           -0.06562   0.99774   0.01434
           Z           -0.01097  -0.01509   0.99983
 This molecule is an asymmetric top.
 Rotational symmetry number  1.
 Rotational temperatures (Kelvin)      0.36086     0.23407     0.15907
 Rotational constants (GHZ):           7.51920     4.87718     3.31444
    1 imaginary frequencies ignored.
 Zero-point vibrational energy     246569.7 (Joules/Mol)
                                   58.93157 (Kcal/Mol)
 Warning -- explicit consideration of   5 degrees of freedom as
           vibrations may cause significant error
 Vibrational temperatures:    242.17   514.53   632.06   665.67   745.53
          (Kelvin)            914.76  1184.32  1243.79  1292.71  1354.66
                             1457.90  1491.16  1542.15  1619.09  1684.39
                             1751.87  1842.26  1936.57  1973.47  2089.80
                             2117.86  2129.19  2280.47  4314.97  4362.48
                             4430.73  4449.98  4468.58  4577.83

 Zero-point correction=                           0.093913 (Hartree/Particle)
 Thermal correction to Energy=                    0.099026
 Thermal correction to Enthalpy=                  0.099970
 Thermal correction to Gibbs Free Energy=         0.065326
 Sum of electronic and zero-point Energies=           -268.787834
 Sum of electronic and thermal Energies=              -268.782722
 Sum of electronic and thermal Enthalpies=            -268.781778
 Sum of electronic and thermal Free Energies=         -268.816422

                     E (Thermal)             CV                S
                      KCal/Mol        Cal/Mol-Kelvin    Cal/Mol-Kelvin
 Total                   62.140             18.792             72.914
 Electronic               0.000              0.000              1.377
 Translational            0.889              2.981             38.862
 Rotational               0.889              2.981             25.384
 Vibrational             60.362             12.830              7.291
 Vibration     1          0.625              1.881              2.454
 Vibration     2          0.733              1.560              1.132
 Vibration     3          0.799              1.384              0.829
 Vibration     4          0.820              1.333              0.758
 Vibration     5          0.873              1.210              0.614

 Optimization completed.
    -- Stationary point found.
 Normal termination of Gaussian 09 at Sat Jun  6 17:54:44 2015.
