 Gaussian 09, Revision A.01,
 Gaussian 09:  EM64L-G09RevA.01  8-May-2009

 ------------------------
 #p opt freq ub3lyp/cbsb7
 ------------------------

 --------------------------------
 QOOH_1d_5_opt using cbsb7 to opt
 --------------------------------
 Symbolic Z-matrix:
 Charge =  0 Multiplicity = 2

 SCF Done:  E(UB3LYP) =  -504.843843108     A.U. after   15 cycles
 SCF Done:  E(UB3LYP) =  -504.843849062     A.U. after   11 cycles
 SCF Done:  E(UB3LYP) =  -504.843852472     A.U. after    9 cycles
 SCF Done:  E(UB3LYP) =  -504.843852525     A.U. after    7 cycles
 SCF Done:  E(UB3LYP) =  -504.843852545     A.U. after    6 cycles
 SCF Done:  E(UB3LYP) =  -504.843852567     A.U. after    7 cycles
 SCF Done:  E(UB3LYP) =  -504.843852569     A.U. after    7 cycles
 SCF Done:  E(UB3LYP) =  -504.843852542     A.U. after    7 cycles
 SCF Done:  E(UB3LYP) =  -504.843852476     A.U. after    7 cycles
 SCF Done:  E(UB3LYP) =  -504.843852363     A.U. after    7 cycles
 SCF Done:  E(UB3LYP) =  -504.843852232     A.U. after    7 cycles
 SCF Done:  E(UB3LYP) =  -504.843852173     A.U. after    7 cycles
 Optimization completed.
    -- Stationary point found.
 Normal termination of Gaussian 09 at Mon Jun  1 01:10:44 2015.

 ----------------------------------------------------------------------
 #P Geom=AllCheck Guess=TCheck SCRF=Check GenChk UB3LYP/6-311G(2d,d,p)
 Freq
 ----------------------------------------------------------------------

 QOOH_1d_5_opt using cbsb7 to opt
 --------------------------------
 Redundant internal coordinates taken from checkpoint file:
 QOOH_1d_5_opt.chk
 Charge =  0 Multiplicity = 2

                         Standard orientation:
 ---------------------------------------------------------------------
 Center     Atomic      Atomic             Coordinates (Angstroms)
 Number     Number       Type             X           Y           Z
 ---------------------------------------------------------------------
      1          6           0        2.879359   -2.140534   -0.237324
      2          1           0        2.399731   -2.895746   -0.863272
      3          1           0        2.951120   -2.547139    0.777118
      4          1           0        3.896617   -1.987207   -0.610256
      5          6           0        2.070089   -0.831621   -0.249973
      6          1           0        2.034837   -0.450168   -1.277134
      7          6           0        0.670684   -1.032482    0.242415
      8          1           0        0.530461   -1.676566    1.109094
      9          6           0       -0.473380   -0.186355   -0.208445
     10          1           0       -0.425166   -0.056526   -1.299854
     11          1           0       -0.349162    0.829255    0.198462
     12          6           0       -1.847504   -0.748332    0.184104
     13          1           0       -1.910253   -0.818002    1.278741
     14          1           0       -1.923414   -1.776068   -0.190854
     15          6           0       -3.055279    0.054214   -0.334470
     16          1           0       -2.949041    0.143561   -1.424590
     17          6           0       -4.362516   -0.699813   -0.053081
     18          1           0       -4.520871   -0.816677    1.024787
     19          1           0       -5.225909   -0.163624   -0.458020
     20          1           0       -4.349800   -1.699434   -0.497605
     21          6           0        2.830063    0.231485    0.575253
     22          1           0        2.848974   -0.046630    1.634938
     23          1           0        3.862837    0.332148    0.216048
     24          6           0       -3.114871    1.472896    0.250270
     25          1           0       -3.986172    2.015306   -0.128840
     26          1           0       -3.195133    1.437842    1.342655
     27          1           0       -2.227511    2.058643    0.000126
     28          8           0        2.209085    1.511903    0.594738
     29          8           0        2.302308    2.059938   -0.752741
     30          1           0        2.866857    2.825562   -0.580007
 ---------------------------------------------------------------------

 SCF Done:  E(UB3LYP) =  -504.843852173     A.U. after    1 cycles

 The electronic state is 2-A.
 Alpha  occ. eigenvalues --  -19.17631 -19.17037 -10.22187 -10.17532 -10.16697
 Alpha  occ. eigenvalues --  -10.16578 -10.16275 -10.15733 -10.15601 -10.15100
 Alpha  occ. eigenvalues --  -10.14942  -1.11959  -0.91946  -0.81570  -0.79790
 Alpha  occ. eigenvalues --   -0.74645  -0.67818  -0.67369  -0.66529  -0.60316
 Alpha  occ. eigenvalues --   -0.56829  -0.55317  -0.51524  -0.48403  -0.48180
 Alpha  occ. eigenvalues --   -0.46259  -0.44189  -0.43771  -0.42492  -0.42029
 Alpha  occ. eigenvalues --   -0.40620  -0.39105  -0.38085  -0.37863  -0.36990
 Alpha  occ. eigenvalues --   -0.36139  -0.35120  -0.34423  -0.33402  -0.31778
 Alpha  occ. eigenvalues --   -0.31615  -0.30952  -0.30757  -0.27015  -0.18199
 Alpha virt. eigenvalues --    0.00993   0.04438   0.04901   0.05186   0.06365
 Alpha virt. eigenvalues --    0.08175   0.08408   0.08468   0.10110   0.10702
 Alpha virt. eigenvalues --    0.11412   0.11854   0.12045   0.12936   0.13956

  Beta  occ. eigenvalues --  -19.17633 -19.17034 -10.22055 -10.17615 -10.16697
  Beta  occ. eigenvalues --  -10.16228 -10.15808 -10.15582 -10.15191 -10.15100
  Beta  occ. eigenvalues --  -10.14938  -1.11951  -0.91903  -0.81034  -0.79378
  Beta  occ. eigenvalues --   -0.74198  -0.67811  -0.67065  -0.65659  -0.60101
  Beta  occ. eigenvalues --   -0.55777  -0.55271  -0.51206  -0.48179  -0.47882
  Beta  occ. eigenvalues --   -0.46114  -0.43940  -0.43469  -0.42211  -0.41897
  Beta  occ. eigenvalues --   -0.40226  -0.38869  -0.37956  -0.37701  -0.36852
  Beta  occ. eigenvalues --   -0.35775  -0.35019  -0.34126  -0.33105  -0.31611
  Beta  occ. eigenvalues --   -0.31525  -0.30733  -0.30595  -0.26784
  Beta virt. eigenvalues --   -0.04204   0.01012   0.04502   0.04986   0.05266
  Beta virt. eigenvalues --    0.06463   0.08271   0.08463   0.08516   0.10242
  Beta virt. eigenvalues --    0.10828   0.11545   0.11901   0.12220   0.12982

 Mulliken atomic charges:
              1
     1  C   -0.280540
     2  H    0.115151
     3  H    0.100002
     4  H    0.102477
     5  C   -0.215430
     6  H    0.132749
     7  C   -0.135486
     8  H    0.093506
     9  C   -0.160801
    10  H    0.105448
    11  H    0.135324
    12  C   -0.199968
    13  H    0.100013
    14  H    0.104503
    15  C   -0.207081
    16  H    0.107241
    17  C   -0.265700
    18  H    0.097219
    19  H    0.101797
    20  H    0.101396
    21  C    0.071109
    22  H    0.111897
    23  H    0.095439
    24  C   -0.268998
    25  H    0.101030
    26  H    0.097736
    27  H    0.110113
    28  O   -0.250542
    29  O   -0.267222
    30  H    0.267618
 Sum of Mulliken atomic charges =   0.00000

 Dipole moment (field-independent basis, Debye):
    X=              1.6961    Y=              0.1856    Z=              0.0447  Tot=              1.7068
 Quadrupole moment (field-independent basis, Debye-Ang):
   XX=            -64.9337   YY=            -69.0923   ZZ=            -71.8584
   XY=              3.1033   XZ=              0.4296   YZ=             -1.5159

  Exact polarizability: 133.132  -3.071 114.186  -0.010  -4.540  97.122
 Approx polarizability: 152.821  -1.113 154.802  -0.305  -9.176 155.235

                     1                      2                      3
                     A                      A                      A
 Frequencies --    11.9388                39.3009                51.2494
 Red. masses --     2.6400                 3.8443                 4.4732
 Frc consts  --     0.0002                 0.0035                 0.0069
 IR Inten    --     0.0059                 0.4385                 1.7555

                     4                      5                      6
                     A                      A                      A
 Frequencies --    87.2555               104.9217               121.2900
 Red. masses --     2.6225                 1.9078                 2.8460
 Frc consts  --     0.0118                 0.0124                 0.0247
 IR Inten    --     0.8948                 0.0415                 0.2475

                     7                      8                      9
                     A                      A                      A
 Frequencies --   144.0473               183.2543               203.9071
 Red. masses --     3.2201                 1.2468                 2.6938
 Frc consts  --     0.0394                 0.0247                 0.0660
 IR Inten    --     4.8407                97.5626                13.3134

                    10                     11                     12
                     A                      A                      A
 Frequencies --   214.6975               222.6765               245.3077
 Red. masses --     1.1648                 1.0516                 1.6796
 Frc consts  --     0.0316                 0.0307                 0.0596
 IR Inten    --     0.3425                 0.0063                 0.9215

                    13                     14                     15
                     A                      A                      A
 Frequencies --   248.0479               290.4297               325.8996
 Red. masses --     1.2770                 2.5578                 2.2628
 Frc consts  --     0.0463                 0.1271                 0.1416
 IR Inten    --     1.5247                 2.1714                 2.0755

                    16                     17                     18
                     A                      A                      A
 Frequencies --   370.9565               390.2974               409.4145
 Red. masses --     1.8042                 2.5878                 2.3673
 Frc consts  --     0.1463                 0.2323                 0.2338
 IR Inten    --     2.9812                 0.5024                 0.3053

                    19                     20                     21
                     A                      A                      A
 Frequencies --   449.1059               484.7606               518.0881
 Red. masses --     2.1131                 2.6325                 2.2823
 Frc consts  --     0.2511                 0.3645                 0.3609
 IR Inten    --     2.6737                 6.5399                 5.6635

                    22                     23                     24
                     A                      A                      A
 Frequencies --   568.1801               750.4830               817.0000
 Red. masses --     4.2486                 1.2748                 2.4436
 Frc consts  --     0.8081                 0.4230                 0.9610
 IR Inten    --    15.7393                 1.7537                 0.3301

                    25                     26                     27
                     A                      A                      A
 Frequencies --   853.3517               863.7825               919.6330
 Red. masses --     2.9021                 2.9910                 2.0127
 Frc consts  --     1.2452                 1.3148                 1.0029
 IR Inten    --    10.6041                10.4636                 4.0881

                    28                     29                     30
                     A                      A                      A
 Frequencies --   930.5796               936.0705               941.4088
 Red. masses --     1.1967                 1.6881                 1.5098
 Frc consts  --     0.6106                 0.8715                 0.7883
 IR Inten    --     1.6087                 1.0841                 0.6261

                    31                     32                     33
                     A                      A                      A
 Frequencies --   960.6070               969.3989              1016.0995
 Red. masses --     1.4577                 1.8944                 4.7051
 Frc consts  --     0.7925                 1.0489                 2.8621
 IR Inten    --     0.0203                 0.3015                13.7521

                    34                     35                     36
                     A                      A                      A
 Frequencies --  1034.0686              1064.7744              1089.3146
 Red. masses --     3.3833                 2.7144                 1.4454
 Frc consts  --     2.1315                 1.8131                 1.0105
 IR Inten    --    10.6391                 2.0941                 1.6275

                    37                     38                     39
                     A                      A                      A
 Frequencies --  1111.3288              1128.7113              1157.0361
 Red. masses --     1.9199                 2.0801                 2.1175
 Frc consts  --     1.3971                 1.5613                 1.6702
 IR Inten    --     1.0447                 0.5112                 1.1624

                    40                     41                     42
                     A                      A                      A
 Frequencies --  1179.1175              1192.0800              1224.2502
 Red. masses --     2.1573                 1.7817                 1.5578
 Frc consts  --     1.7672                 1.4917                 1.3756
 IR Inten    --     1.9318                 3.6973                 3.6955

                    43                     44                     45
                     A                      A                      A
 Frequencies --  1251.5146              1281.7181              1307.6371
 Red. masses --     1.2832                 1.2582                 1.2059
 Frc consts  --     1.1841                 1.2178                 1.2149
 IR Inten    --     0.4619                 3.8654                 0.2245

                    46                     47                     48
                     A                      A                      A
 Frequencies --  1316.2224              1325.7614              1358.6288
 Red. masses --     1.1772                 1.1912                 1.1793
 Frc consts  --     1.2016                 1.2336                 1.2826
 IR Inten    --     0.7571                 3.2055                18.4138

                    49                     50                     51
                     A                      A                      A
 Frequencies --  1361.9632              1369.7744              1377.3300
 Red. masses --     1.3010                 1.3354                 1.2907
 Frc consts  --     1.4219                 1.4762                 1.4426
 IR Inten    --    11.9949                 8.0109                38.3815

                    52                     53                     54
                     A                      A                      A
 Frequencies --  1394.0890              1402.3870              1406.8269
 Red. masses --     1.5097                 1.2567                 1.2590
 Frc consts  --     1.7287                 1.4562                 1.4681
 IR Inten    --     2.0331                 8.7084                 8.4644

                    55                     56                     57
                     A                      A                      A
 Frequencies --  1421.4029              1431.7266              1462.3129
 Red. masses --     1.2366                 1.6141                 1.1124
 Frc consts  --     1.4720                 1.9494                 1.4015
 IR Inten    --     6.2371                 4.7242                 2.8012

                    58                     59                     60
                     A                      A                      A
 Frequencies --  1470.6151              1487.3932              1492.4803
 Red. masses --     1.0758                 1.0680                 1.0454
 Frc consts  --     1.3708                 1.3920                 1.3719
 IR Inten    --     1.0744                 0.3519                 1.0777

                    61                     62                     63
                     A                      A                      A
 Frequencies --  1496.8630              1499.6237              1502.9663
 Red. masses --     1.0477                 1.0706                 1.0566
 Frc consts  --     1.3830                 1.4185                 1.4062
 IR Inten    --     8.1800                 3.2438                 4.9629

                    64                     65                     66
                     A                      A                      A
 Frequencies --  1506.5170              1512.5465              2963.6755
 Red. masses --     1.0550                 1.0483                 1.0626
 Frc consts  --     1.4107                 1.4131                 5.4991
 IR Inten    --     3.8172                15.3493                 8.6585

                    67                     68                     69
                     A                      A                      A
 Frequencies --  2981.2701              2983.7755              2992.3639
 Red. masses --     1.0901                 1.0809                 1.0617
 Frc consts  --     5.7082                 5.6698                 5.6015
 IR Inten    --     8.5104                 2.4546                62.2360

                    70                     71                     72
                     A                      A                      A
 Frequencies --  2997.1694              3011.8401              3018.1103
 Red. masses --     1.0636                 1.0363                 1.0387
 Frc consts  --     5.6291                 5.5385                 5.5745
 IR Inten    --    43.2811                32.8269                50.8597

                    73                     74                     75
                     A                      A                      A
 Frequencies --  3018.6158              3025.2439              3034.5477
 Red. masses --     1.0396                 1.0798                 1.1015
 Frc consts  --     5.5815                 5.8225                 5.9762
 IR Inten    --    20.8391                 9.3164                44.9487

                    76                     77                     78
                     A                      A                      A
 Frequencies --  3062.5166              3070.1498              3076.9630
 Red. masses --     1.1006                 1.1006                 1.1000
 Frc consts  --     6.0816                 6.1120                 6.1359
 IR Inten    --     8.9782                 5.9571                73.5775

                    79                     80                     81
                     A                      A                      A
 Frequencies --  3078.3290              3081.9711              3094.3955
 Red. masses --     1.1009                 1.1016                 1.0994
 Frc consts  --     6.1463                 6.1648                 6.2025
 IR Inten    --    59.7640                51.7264                39.5823

                    82                     83                     84
                     A                      A                      A
 Frequencies --  3099.5186              3119.8550              3773.9748
 Red. masses --     1.1002                 1.0863                 1.0688
 Frc consts  --     6.2277                 6.2295                 8.9689
 IR Inten    --    26.2986                29.1155                42.8987

 - Thermochemistry -
 -------------------
 Temperature   298.150 Kelvin.  Pressure   1.00000 Atm.
 Atom     1 has atomic number  6 and mass  12.00000

 Molecular mass:   159.13850 amu.
 Principal axes and moments of inertia in atomic units:
                           1         2         3
     Eigenvalues --  1103.364304059.059074873.88274
           X            0.99983  -0.01845  -0.00149
           Y            0.01845   0.99983  -0.00044
           Z            0.00150   0.00042   1.00000
 This molecule is an asymmetric top.
 Rotational symmetry number  1.
 Warning -- assumption of classical behavior for rotation
           may cause significant error
 Rotational temperatures (Kelvin)      0.07850     0.02134     0.01777
 Rotational constants (GHZ):           1.63567     0.44462     0.37029
 Zero-point vibrational energy     698300.4 (Joules/Mol)
                                  166.89780 (Kcal/Mol)
 Warning -- explicit consideration of  22 degrees of freedom as
           vibrations may cause significant error
 Vibrational temperatures:     17.18    56.55    73.74   125.54   150.96
          (Kelvin)            174.51   207.25   263.66   293.38   308.90
                              320.38   352.94   356.89   417.86   468.90
                              533.72   561.55   589.06   646.16   697.46
                              745.41   817.48  1079.78  1175.48  1227.78
                             1242.79  1323.15  1338.89  1346.79  1354.48
                             1382.10  1394.75  1461.94  1487.79  1531.97
                             1567.28  1598.95  1623.96  1664.71  1696.48
                             1715.14  1761.42  1800.65  1844.10  1881.40
                             1893.75  1907.47  1954.76  1959.56  1970.80
                             1981.67  2005.78  2017.72  2024.11  2045.08
                             2059.93  2103.94  2115.88  2140.02  2147.34
                             2153.65  2157.62  2162.43  2167.54  2176.21
                             4264.06  4289.38  4292.98  4305.34  4312.25
                             4333.36  4342.38  4343.11  4352.65  4366.03
                             4406.27  4417.26  4427.06  4429.02  4434.26
                             4452.14  4459.51  4488.77  5429.90

 Zero-point correction=                           0.265969 (Hartree/Particle)
 Thermal correction to Energy=                    0.281078
 Thermal correction to Enthalpy=                  0.282023
 Thermal correction to Gibbs Free Energy=         0.221548
 Sum of electronic and zero-point Energies=           -504.577884
 Sum of electronic and thermal Energies=              -504.562774
 Sum of electronic and thermal Enthalpies=            -504.561829
 Sum of electronic and thermal Free Energies=         -504.622304

                     E (Thermal)             CV                S
                      KCal/Mol        Cal/Mol-Kelvin    Cal/Mol-Kelvin
 Total                  176.379             53.510            127.280
 Electronic               0.000              0.000              1.377
 Translational            0.889              2.981             41.103
 Rotational               0.889              2.981             31.457
 Vibrational            174.602             47.549             53.343
 Vibration     1          0.593              1.987              7.659
 Vibration     2          0.594              1.981              5.294
 Vibration     3          0.596              1.977              4.769
 Vibration     4          0.601              1.958              3.721
 Vibration     5          0.605              1.945              3.361
 Vibration     6          0.609              1.931              3.080
 Vibration     7          0.616              1.909              2.749
 Vibration     8          0.631              1.863              2.295
 Vibration     9          0.640              1.834              2.098
 Vibration    10          0.645              1.819              2.003
 Vibration    11          0.648              1.807              1.937
 Vibration    12          0.660              1.771              1.764
 Vibration    13          0.662              1.766              1.744
 Vibration    14          0.686              1.692              1.471
 Vibration    15          0.710              1.624              1.280
 Vibration    16          0.743              1.532              1.076
 Vibration    17          0.758              1.491              0.999
 Vibration    18          0.774              1.450              0.929
 Vibration    19          0.808              1.363              0.798
 Vibration    20          0.841              1.284              0.697
 Vibration    21          0.873              1.210              0.614
 Vibration    22          0.924              1.100              0.508

 Optimization completed.
    -- Stationary point found.
 Normal termination of Gaussian 09 at Mon Jun  1 01:24:27 2015.
