 Gaussian 09, Revision C.01,
 Gaussian 09:  EM64L-G09RevC.01 23-Sep-2011

 ----------------------------------------------
 #p opt=(calcfc,qst3) freq ub3lyp/6-311++g(d,p)
 ----------------------------------------------

 (Enter /usr/caen/gaussian-09revc/g09/l101.exe)
 --------------------------------------------------------
 TS_1_1b using B3LYP/6-311++g(d,p) to find TS | reactants
 --------------------------------------------------------
 Charge =  0 Multiplicity = 2

 --------
 products
 --------
 Charge =  0 Multiplicity = 2

 ------------
 intermediate
 ------------
 Charge =  0 Multiplicity = 2

 SCF Done:  E(UB3LYP) =  -504.839881385     A.U. after   17 cycles
 SCF Done:  E(UB3LYP) =  -504.834290452     A.U. after   15 cycles
 SCF Done:  E(UB3LYP) =  -504.823517395     A.U. after   16 cycles
 SCF Done:  E(UB3LYP) =  -504.812416869     A.U. after   16 cycles
 SCF Done:  E(UB3LYP) =  -504.805147224     A.U. after   17 cycles
 SCF Done:  E(UB3LYP) =  -504.815200997     A.U. after   15 cycles
 SCF Done:  E(UB3LYP) =  -504.825705688     A.U. after   15 cycles
 SCF Done:  E(UB3LYP) =  -504.827496426     A.U. after   15 cycles
 SCF Done:  E(UB3LYP) =  -504.828104977     A.U. after   16 cycles
 SCF Done:  E(UB3LYP) =  -504.829530297     A.U. after   17 cycles
 SCF Done:  E(UB3LYP) =  -504.833039783     A.U. after   13 cycles
 SCF Done:  E(UB3LYP) =  -504.833026309     A.U. after   14 cycles
 SCF Done:  E(UB3LYP) =  -504.833041514     A.U. after   13 cycles
 SCF Done:  E(UB3LYP) =  -504.833042485     A.U. after   13 cycles
 SCF Done:  E(UB3LYP) =  -504.833043354     A.U. after   13 cycles
 SCF Done:  E(UB3LYP) =  -504.833043816     A.U. after   13 cycles
 SCF Done:  E(UB3LYP) =  -504.833043782     A.U. after   11 cycles
 SCF Done:  E(UB3LYP) =  -504.833043733     A.U. after   13 cycles
 SCF Done:  E(UB3LYP) =  -504.833043719     A.U. after   12 cycles
 Optimization completed.
    -- Stationary point found.
 Normal termination of Gaussian 09 at Fri Feb 14 04:11:49 2014.

 ----------------------------------------------------------------------
 #P Geom=AllCheck Guess=TCheck SCRF=Check GenChk UB3LYP/6-311++G(d,p) F
 req
 ----------------------------------------------------------------------

 Structure from the checkpoint file:  TS_1_1b.chk
 --------------------------------------------------------
 TS_1_1b using B3LYP/6-311++g(d,p) to find TS | reactants
 --------------------------------------------------------
 Charge =  0 Multiplicity = 2

                         Standard orientation:
 ---------------------------------------------------------------------
 Center     Atomic      Atomic             Coordinates (Angstroms)
 Number     Number       Type             X           Y           Z
 ---------------------------------------------------------------------
      1          6           0       -2.982846   -1.454928    0.209067
      2          1           0       -2.742700   -2.272041   -0.467794
      3          1           0       -3.651132   -0.511547   -0.571272
      4          1           0       -3.761902   -1.692416    0.931922
      5          6           0       -1.834669   -0.600170    0.697429
      6          1           0       -1.635998   -0.840349    1.753722
      7          6           0       -0.550236   -0.835644   -0.121084
      8          1           0       -0.394098   -1.917686   -0.199715
      9          1           0       -0.711482   -0.473198   -1.142464
     10          6           0        0.718730   -0.201280    0.462120
     11          1           0        0.853921   -0.546584    1.496125
     12          1           0        0.603585    0.885797    0.512164
     13          6           0        1.973556   -0.545334   -0.351269
     14          1           0        1.859632   -0.159904   -1.373604
     15          1           0        2.039636   -1.636632   -0.444947
     16          6           0        3.301985   -0.026398    0.231126
     17          1           0        3.377765   -0.393783    1.264189
     18          6           0        4.490241   -0.597805   -0.555470
     19          1           0        4.463403   -0.265648   -1.599241
     20          1           0        5.442950   -0.270985   -0.128553
     21          1           0        4.480728   -1.691894   -0.554716
     22          6           0       -2.279692    0.890837    0.692682
     23          1           0       -3.093301    1.058167    1.405743
     24          1           0       -1.451010    1.564171    0.917422
     25          6           0        3.369923    1.507321    0.269903
     26          1           0        4.331305    1.845112    0.667891
     27          1           0        3.262154    1.926489   -0.736843
     28          1           0        2.586633    1.940228    0.896981
     29          8           0       -2.708533    1.250134   -0.614001
     30          8           0       -3.929224    0.579004   -0.865253
 ---------------------------------------------------------------------

 SCF Done:  E(UB3LYP) =  -504.833043719     A.U. after    1 cycles

 The electronic state is 2-A.
 Alpha  occ. eigenvalues --  -19.19447 -19.18052 -10.23524 -10.20063 -10.19473
 Alpha  occ. eigenvalues --  -10.17791 -10.17586 -10.17347 -10.16865 -10.16015
 Alpha  occ. eigenvalues --  -10.15979  -1.13905  -0.90007  -0.83381  -0.81313
 Alpha  occ. eigenvalues --   -0.76152  -0.68802  -0.68671  -0.67990  -0.61865
 Alpha  occ. eigenvalues --   -0.58881  -0.56423  -0.53419  -0.50276  -0.48982
 Alpha  occ. eigenvalues --   -0.46828  -0.46267  -0.44977  -0.43858  -0.42982
 Alpha  occ. eigenvalues --   -0.41882  -0.40803  -0.38946  -0.38514  -0.37915
 Alpha  occ. eigenvalues --   -0.37385  -0.36483  -0.35942  -0.33963  -0.33868
 Alpha  occ. eigenvalues --   -0.32738  -0.32573  -0.31738  -0.27316  -0.23240
 Alpha virt. eigenvalues --   -0.01439  -0.00516   0.00012   0.00543   0.01130
 Alpha virt. eigenvalues --    0.01632   0.02220   0.02630   0.03297   0.03646
 Alpha virt. eigenvalues --    0.03846   0.04485   0.04980   0.05655   0.05773

  Beta  occ. eigenvalues --  -19.19204 -19.16934 -10.23463 -10.20070 -10.18563
  Beta  occ. eigenvalues --  -10.17791 -10.17583 -10.17346 -10.16865 -10.16015
  Beta  occ. eigenvalues --  -10.15979  -1.12709  -0.88305  -0.82999  -0.80989
  Beta  occ. eigenvalues --   -0.75789  -0.68784  -0.68313  -0.66827  -0.61373
  Beta  occ. eigenvalues --   -0.58325  -0.56384  -0.52203  -0.49833  -0.48680
  Beta  occ. eigenvalues --   -0.46601  -0.45832  -0.44414  -0.43699  -0.42581
  Beta  occ. eigenvalues --   -0.40927  -0.39932  -0.38889  -0.38054  -0.37368
  Beta  occ. eigenvalues --   -0.36836  -0.36179  -0.35448  -0.33826  -0.32728
  Beta  occ. eigenvalues --   -0.32690  -0.32183  -0.31667  -0.25856
  Beta virt. eigenvalues --   -0.12037  -0.01411  -0.00479   0.00051   0.00567
  Beta virt. eigenvalues --    0.01246   0.01743   0.02448   0.02788   0.03322
  Beta virt. eigenvalues --    0.03695   0.03866   0.04613   0.04999   0.05724

 Mulliken atomic charges:
              1
     1  C   -0.800658
     2  H    0.177983
     3  H    0.306141
     4  H    0.190928
     5  C    0.852600
     6  H    0.170817
     7  C   -0.850544
     8  H    0.110307
     9  H    0.218703
    10  C    0.021148
    11  H    0.138246
    12  H    0.071583
    13  C   -0.662645
    14  H    0.139192
    15  H    0.121381
    16  C    0.505634
    17  H    0.135580
    18  C   -0.617054
    19  H    0.137646
    20  H    0.152680
    21  H    0.130071
    22  C   -0.639441
    23  H    0.197452
    24  H    0.183799
    25  C   -0.654332
    26  H    0.141770
    27  H    0.146422
    28  H    0.135709
    29  O    0.021954
    30  O   -0.183071
 Sum of Mulliken atomic charges =   0.00000

 Dipole moment (field-independent basis, Debye):
    X=              1.9361    Y=             -1.7920    Z=              2.4318  Tot=              3.5880
 Quadrupole moment (field-independent basis, Debye-Ang):
   XX=            -82.1692   YY=            -72.4868   ZZ=            -72.9244
   XY=              6.7077   XZ=             -7.1647   YZ=              2.3650

  Exact polarizability: 144.611   1.177 124.941   1.917  -0.301 106.205
 Approx polarizability: 170.241   1.599 186.248   8.389  -7.285 164.623

 ******    1 imaginary frequencies (negative Signs) ******

                     1                      2                      3
                     A                      A                      A
 Frequencies -- -1654.9991                12.1414                41.1967
 Red. masses --     1.1088                 2.8275                 4.4057
 Frc consts  --     1.7894                 0.0002                 0.0044
 IR Inten    --   287.9700                 0.8401                 1.8752

                     4                      5                      6
                     A                      A                      A
 Frequencies --    75.8595                97.4016               114.3132
 Red. masses --     3.6319                 2.8720                 1.7707
 Frc consts  --     0.0123                 0.0161                 0.0136
 IR Inten    --     1.3023                 0.1834                 0.2185

                     7                      8                      9
                     A                      A                      A
 Frequencies --   145.8301               217.6066               219.4861
 Red. masses --     2.6750                 2.4557                 1.1230
 Frc consts  --     0.0335                 0.0685                 0.0319
 IR Inten    --     0.4159                 0.4291                 0.0050

                    10                     11                     12
                     A                      A                      A
 Frequencies --   242.1228               250.6795               295.4417
 Red. masses --     2.5793                 1.1936                 3.1276
 Frc consts  --     0.0891                 0.0442                 0.1608
 IR Inten    --     0.2482                 0.1186                 4.1340

                    13                     14                     15
                     A                      A                      A
 Frequencies --   368.9520               386.3819               420.3389
 Red. masses --     2.3010                 2.1049                 1.7211
 Frc consts  --     0.1846                 0.1851                 0.1792
 IR Inten    --     0.4231                 1.4997                 0.8926

                    16                     17                     18
                     A                      A                      A
 Frequencies --   443.6575               451.8133               474.0827
 Red. masses --     2.1249                 2.1505                 2.5904
 Frc consts  --     0.2464                 0.2587                 0.3430
 IR Inten    --     0.8926                 4.0486                 0.5802

                    19                     20                     21
                     A                      A                      A
 Frequencies --   516.6633               595.2417               670.4820
 Red. masses --     3.6263                 3.0717                 2.2004
 Frc consts  --     0.5703                 0.6412                 0.5828
 IR Inten    --     1.4926                 0.8108                 4.8072

                    22                     23                     24
                     A                      A                      A
 Frequencies --   749.0190               785.8961               832.2775
 Red. masses --     1.2109                 2.8148                 2.6748
 Frc consts  --     0.4003                 1.0243                 1.0916
 IR Inten    --     4.9341                 3.7759                 1.9723

                    25                     26                     27
                     A                      A                      A
 Frequencies --   858.1163               886.9435               922.6678
 Red. masses --     1.4338                 3.7185                 1.6980
 Frc consts  --     0.6220                 1.7235                 0.8517
 IR Inten    --     0.9509                32.5878                 3.6955

                    28                     29                     30
                     A                      A                      A
 Frequencies --   928.4237               946.8608               962.9539
 Red. masses --     1.2204                 1.7331                 1.4835
 Frc consts  --     0.6198                 0.9155                 0.8105
 IR Inten    --     0.3322                 0.7432                 0.6272

                    31                     32                     33
                     A                      A                      A
 Frequencies --   965.1359               997.4218              1008.3310
 Red. masses --     2.0280                 1.7090                 3.2168
 Frc consts  --     1.1130                 1.0017                 1.9270
 IR Inten    --     6.1644                 0.0543                 4.0244

                    34                     35                     36
                     A                      A                      A
 Frequencies --  1029.3216              1044.3357              1057.3288
 Red. masses --     3.6380                 1.4607                 2.4233
 Frc consts  --     2.2710                 0.9386                 1.5962
 IR Inten    --     1.3775                 2.7223                 1.2973

                    37                     38                     39
                     A                      A                      A
 Frequencies --  1098.6748              1105.8969              1124.1344
 Red. masses --     1.3451                 2.2655                 1.1235
 Frc consts  --     0.9566                 1.6324                 0.8365
 IR Inten    --    11.4275                 3.5045                13.2209

                    40                     41                     42
                     A                      A                      A
 Frequencies --  1154.5513              1186.1360              1189.4873
 Red. masses --     2.3773                 2.0362                 1.7718
 Frc consts  --     1.8671                 1.6879                 1.4770
 IR Inten    --     0.5860                 1.3553                 4.9776

                    43                     44                     45
                     A                      A                      A
 Frequencies --  1215.5315              1232.8257              1276.7502
 Red. masses --     1.4749                 1.4245                 1.3168
 Frc consts  --     1.2840                 1.2756                 1.2646
 IR Inten    --     8.2117                 5.1428                 1.8799

                    46                     47                     48
                     A                      A                      A
 Frequencies --  1280.6324              1308.1855              1332.3777
 Red. masses --     1.2343                 1.3254                 1.2053
 Frc consts  --     1.1927                 1.3364                 1.2607
 IR Inten    --     3.9504                 1.7553                 0.9278

                    49                     50                     51
                     A                      A                      A
 Frequencies --  1344.2835              1350.5510              1368.6086
 Red. masses --     1.1003                 1.3725                 1.3108
 Frc consts  --     1.1715                 1.4750                 1.4466
 IR Inten    --     1.7026                 3.4722                 2.3704

                    52                     53                     54
                     A                      A                      A
 Frequencies --  1371.1605              1390.2143              1399.3051
 Red. masses --     1.2951                 1.4362                 1.3917
 Frc consts  --     1.4345                 1.6354                 1.6055
 IR Inten    --     9.0061                 1.2564                 6.4068

                    55                     56                     57
                     A                      A                      A
 Frequencies --  1403.0958              1420.7408              1455.7479
 Red. masses --     1.3943                 1.2440                 1.1373
 Frc consts  --     1.6172                 1.4795                 1.4201
 IR Inten    --     2.6484                 6.3000                 2.8498

                    58                     59                     60
                     A                      A                      A
 Frequencies --  1475.9916              1480.4783              1488.1037
 Red. masses --     1.0896                 1.0714                 1.0786
 Frc consts  --     1.3985                 1.3836                 1.4072
 IR Inten    --     5.5907                 0.8671                 0.6968

                    61                     62                     63
                     A                      A                      A
 Frequencies --  1490.2037              1495.0088              1504.2295
 Red. masses --     1.0455                 1.0576                 1.0626
 Frc consts  --     1.3679                 1.3927                 1.4167
 IR Inten    --     0.9242                 1.5595                 5.1387

                    64                     65                     66
                     A                      A                      A
 Frequencies --  1506.5753              1512.0826              1567.0155
 Red. masses --     1.0845                 1.0533                 1.0541
 Frc consts  --     1.4503                 1.4189                 1.5250
 IR Inten    --     2.9302                18.2034                23.7884

                    67                     68                     69
                     A                      A                      A
 Frequencies --  2962.5132              2982.6279              2992.3443
 Red. masses --     1.0812                 1.0807                 1.0629
 Frc consts  --     5.5909                 5.6646                 5.6074
 IR Inten    --    10.7240                 8.3541                 2.5832

                    70                     71                     72
                     A                      A                      A
 Frequencies --  2999.7815              3011.5528              3016.1360
 Red. masses --     1.0654                 1.0363                 1.0581
 Frc consts  --     5.6487                 5.5373                 5.6712
 IR Inten    --    39.4606                31.3035                29.8537

                    73                     74                     75
                     A                      A                      A
 Frequencies --  3017.7863              3025.1775              3035.4574
 Red. masses --     1.0435                 1.0957                 1.0641
 Frc consts  --     5.5993                 5.9080                 5.7768
 IR Inten    --    32.1170                17.5965                38.8003

                    76                     77                     78
                     A                      A                      A
 Frequencies --  3046.4122              3065.7203              3070.6556
 Red. masses --     1.0944                 1.1022                 1.1003
 Frc consts  --     5.9840                 6.1036                 6.1124
 IR Inten    --    13.7603                41.1381                14.2815

                    79                     80                     81
                     A                      A                      A
 Frequencies --  3076.9651              3081.7826              3085.6120
 Red. masses --     1.0998                 1.1013                 1.0531
 Frc consts  --     6.1350                 6.1628                 5.9073
 IR Inten    --    72.4248                52.3171                17.5888

                    82                     83                     84
                     A                      A                      A
 Frequencies --  3089.4943              3112.2594              3172.8817
 Red. masses --     1.0997                 1.1014                 1.1137
 Frc consts  --     6.1843                 6.2856                 6.6056
 IR Inten    --    45.2402                15.4441                10.3344

 - Thermochemistry -
 -------------------
 Temperature   298.150 Kelvin.  Pressure   1.00000 Atm.
 Atom     1 has atomic number  6 and mass  12.00000

 Molecular mass:   159.13850 amu.
 Principal axes and moments of inertia in atomic units:
                           1         2         3
     Eigenvalues --   739.034424907.452745226.64309
           X            0.99987   0.01348  -0.00930
           Y           -0.01294   0.99839   0.05528
           Z            0.01003  -0.05515   0.99843
 This molecule is an asymmetric top.
 Rotational symmetry number  1.
 Warning -- assumption of classical behavior for rotation
           may cause significant error
 Rotational temperatures (Kelvin)      0.11720     0.01765     0.01657
 Rotational constants (GHZ):           2.44203     0.36776     0.34530
    1 imaginary frequencies ignored.
 Zero-point vibrational energy     690176.3 (Joules/Mol)
                                  164.95609 (Kcal/Mol)
 Warning -- explicit consideration of  19 degrees of freedom as
           vibrations may cause significant error
 Vibrational temperatures:     17.47    59.27   109.14   140.14   164.47
          (Kelvin)            209.82   313.09   315.79   348.36   360.67
                              425.07   530.84   555.92   604.77   638.32
                              650.06   682.10   743.36   856.42   964.67
                             1077.67  1130.73  1197.46  1234.64  1276.11
                             1327.51  1335.79  1362.32  1385.47  1388.61
                             1435.07  1450.76  1480.96  1502.56  1521.26
                             1580.75  1591.14  1617.38  1661.14  1706.58
                             1711.40  1748.88  1773.76  1836.96  1842.54
                             1882.18  1916.99  1934.12  1943.14  1969.12
                             1972.79  2000.21  2013.29  2018.74  2044.13
                             2094.49  2123.62  2130.08  2141.05  2144.07
                             2150.98  2164.25  2167.62  2175.55  2254.58
                             4262.39  4291.33  4305.31  4316.01  4332.95
                             4339.54  4341.92  4352.55  4367.34  4383.10
                             4410.88  4417.98  4427.06  4433.99  4439.50
                             4445.09  4477.84  4565.06

 Zero-point correction=                           0.262874 (Hartree/Particle)
 Thermal correction to Energy=                    0.276137
 Thermal correction to Enthalpy=                  0.277082
 Thermal correction to Gibbs Free Energy=         0.220811
 Sum of electronic and zero-point Energies=           -504.570169
 Sum of electronic and thermal Energies=              -504.556906
 Sum of electronic and thermal Enthalpies=            -504.555962
 Sum of electronic and thermal Free Energies=         -504.612233

                     E (Thermal)             CV                S
                      KCal/Mol        Cal/Mol-Kelvin    Cal/Mol-Kelvin
 Total                  173.279             49.340            118.432
 Electronic               0.000              0.000              1.377
 Translational            0.889              2.981             41.103
 Rotational               0.889              2.981             31.317
 Vibrational            171.501             43.378             44.634
 Vibration     1          0.593              1.987              7.626
 Vibration     2          0.594              1.981              5.201
 Vibration     3          0.599              1.965              3.995
 Vibration     4          0.603              1.951              3.506
 Vibration     5          0.607              1.938              3.194
 Vibration     6          0.617              1.907              2.726
 Vibration     7          0.646              1.814              1.979
 Vibration     8          0.647              1.811              1.963
 Vibration     9          0.658              1.776              1.787
 Vibration    10          0.663              1.762              1.726
 Vibration    11          0.690              1.682              1.443
 Vibration    12          0.741              1.536              1.084
 Vibration    13          0.755              1.499              1.014
 Vibration    14          0.783              1.426              0.891
 Vibration    15          0.803              1.375              0.815
 Vibration    16          0.810              1.357              0.790
 Vibration    17          0.831              1.308              0.726
 Vibration    18          0.872              1.213              0.618
 Vibration    19          0.953              1.042              0.458

 Optimization completed.
    -- Stationary point found.
 Normal termination of Gaussian 09 at Fri Feb 14 04:56:24 2014.
