 Gaussian 09, Revision D.01,
 Gaussian 09:  ES64L-G09RevD.01 24-Apr-2013

 -----------------
 #p M062X/def2TZVP
 -----------------

 -----------------------------
 using ub3lyp/6-31G(d) to scan
 -----------------------------
 Symbolic Z-matrix:
 Charge =  0 Multiplicity = 1

                         Standard orientation:
 ---------------------------------------------------------------------
 Center     Atomic      Atomic             Coordinates (Angstroms)
 Number     Number       Type             X           Y           Z
 ---------------------------------------------------------------------
      1          6           0        0.690783   -1.265302   -0.510126
      2          1           0        1.748126   -1.279016   -0.213509
      3          1           0        0.653953   -1.321567   -1.604336
      4          1           0        0.210653   -2.159508   -0.099313
      5          6           0       -0.005409   -0.000002    0.013734
      6          6           0        0.690044    1.265725   -0.510077
      7          1           0        0.653189    1.322005   -1.604286
      8          1           0        0.209375    2.159628   -0.099236
      9          1           0        1.747374    1.280058   -0.213446
     10          6           0       -1.490523   -0.000422   -0.356787
     11          1           0       -1.983406   -0.887002    0.055401
     12          1           0       -1.983927    0.885837    0.055469
     13          1           0       -1.622927   -0.000419   -1.443975
     14          8           0        0.014152   -0.000023    1.452366
     15          1           0        0.945008    0.000177    1.727836
 ---------------------------------------------------------------------

 SCF Done:  E(RM062X) =  -233.652102504     A.U. after   14 cycles

 The electronic state is 1-A.
 Alpha  occ. eigenvalues --  -19.61779 -10.59529 -10.52656 -10.52655 -10.52097
 Alpha  occ. eigenvalues --   -1.13765  -0.88631  -0.78293  -0.78165  -0.64875
 Alpha  occ. eigenvalues --   -0.56301  -0.52392  -0.52050  -0.48102  -0.46448
 Alpha  occ. eigenvalues --   -0.44285  -0.42937  -0.42184  -0.41343  -0.38149
 Alpha  occ. eigenvalues --   -0.34459
 Alpha virt. eigenvalues --    0.05079   0.09859   0.11246   0.12090   0.12502
 Alpha virt. eigenvalues --    0.13784   0.14213   0.16230   0.18374   0.18771
 Alpha virt. eigenvalues --    0.19618   0.19687   0.20573   0.21365   0.24668

 Mulliken charges:
               1
     1  C   -0.429395
     2  H    0.134032
     3  H    0.140180
     4  H    0.156495
     5  C    0.113962
     6  C   -0.429382
     7  H    0.140178
     8  H    0.156493
     9  H    0.134030
    10  C   -0.400266
    11  H    0.149017
    12  H    0.149020
    13  H    0.133346
    14  O   -0.458672
    15  H    0.310962
 Sum of Mulliken charges =   0.00000

 Dipole moment (field-independent basis, Debye):
    X=              1.2186    Y=              0.0003    Z=             -1.0920  Tot=              1.6363
 Quadrupole moment (field-independent basis, Debye-Ang):
   XX=            -31.9494   YY=            -33.7756   ZZ=            -34.9250
   XY=              0.0003   XZ=              2.8002   YZ=              0.0007

 Normal termination of Gaussian 09 at Tue Oct  6 19:37:23 2015.
