 Gaussian 09, Revision D.01,
 Gaussian 09:  ES64L-G09RevD.01 24-Apr-2013

 -----------------------------------------
 #p M062X/def2TZVP EmpiricalDispersion=GD3
 -----------------------------------------

 -------------------
 Title Card Required
 -------------------
 Symbolic Z-matrix:
 Charge =  0 Multiplicity = 3

                         Standard orientation:
 ---------------------------------------------------------------------
 Center     Atomic      Atomic             Coordinates (Angstroms)
 Number     Number       Type             X           Y           Z
 ---------------------------------------------------------------------
      1          6           0        0.000000    0.000000    0.000000
 ---------------------------------------------------------------------

 SCF Done:  E(UM062X) =  -37.8425108984     A.U. after   11 cycles

 Unable to determine electronic state:  an orbital has unidentified symmetry.
 Alpha  occ. eigenvalues --  -10.66150  -0.66879  -0.32396  -0.32396
 Alpha virt. eigenvalues --   -0.09725   0.19745   0.28275   0.28275   0.28645
 Alpha virt. eigenvalues --    0.70468   0.70468   0.70536   0.70536   0.71211
 Alpha virt. eigenvalues --    1.24001   1.41048   1.41048   1.42109   2.64309

  Beta  occ. eigenvalues --  -10.64177  -0.53933
  Beta virt. eigenvalues --   -0.06794  -0.04114  -0.04114   0.14104   0.25784
  Beta virt. eigenvalues --    0.25784   0.26201   0.70458   0.71089   0.71089
  Beta virt. eigenvalues --    0.72201   0.72201   1.25450   1.40906   1.46326

 Mulliken charges and spin densities:
               1          2
     1  C    0.000000   2.000000
 Sum of Mulliken charges =   0.00000   2.00000

 Dipole moment (field-independent basis, Debye):
    X=              0.0000    Y=              0.0000    Z=              0.0000  Tot=              0.0000
 Quadrupole moment (field-independent basis, Debye-Ang):
   XX=             -4.9297   YY=             -6.8872   ZZ=             -6.8872
   XY=              0.0000   XZ=              0.0000   YZ=              0.0000

 1\1\GINC-LN1\SP\UM062X\def2TZVP\C1(3)\TSINGHUA_XQYOU_1\13-Apr-2016\0\\
 #p M062X/def2TZVP EmpiricalDispersion=GD3\\Title Card Required\\0,3\C,
 0,0.,0.,0.\\Version=ES64L-G09RevD.01\HF=-37.8425109\S2=2.003566\S2-1=0
 .\S2A=2.\RMSD=8.674e-09\Dipole=0.,0.,0.\Quadrupole=-0.4851252,-0.48512
 52,0.9702504,0.,0.,0.\PG=OH [O(C1)]\\@

 WORK FAITHFULLY FOR EIGHT HOURS A DAY AND DON'T WORRY.

 Normal termination of Gaussian 09 at Wed Apr 13 15:16:04 2016.
