 Gaussian 09, Revision D.01,
 Gaussian 09:  ES64L-G09RevD.01 24-Apr-2013

 -----------------
 #p M062X/def2TZVP
 -----------------

 ---------------------------------------------
 using B3LYP/6-31G(d) to do opt and freq calc.
 ---------------------------------------------
 Symbolic Z-matrix:
 Charge =  0 Multiplicity = 1

                         Standard orientation:
 ---------------------------------------------------------------------
 Center     Atomic      Atomic             Coordinates (Angstroms)
 Number     Number       Type             X           Y           Z
 ---------------------------------------------------------------------
      1          6           0        0.456576    1.388848   -0.095871
      2          1           0        0.474946    1.444498   -1.192414
      3          1           0        1.465733    1.620883    0.265301
      4          1           0       -0.218133    2.174404    0.265179
      5          6           0        0.000000    0.000000    0.372986
      6          1           0       -0.000006    0.000005    1.473541
      7          6           0        0.974496   -1.089829   -0.095871
      8          1           0        1.992149   -0.898283    0.265213
      9          1           0        0.670874   -2.079813    0.265282
     10          1           0        1.013531   -1.133543   -1.192417
     11          6           0       -1.431074   -0.299020   -0.095869
     12          1           0       -1.774068   -1.276056    0.265295
     13          1           0       -2.136586    0.458989    0.265184
     14          1           0       -1.488426   -0.311078   -1.192414
 ---------------------------------------------------------------------

 SCF Done:  E(RM062X) =  -158.420346398     A.U. after   13 cycles

 The electronic state is 1-A.
 Alpha  occ. eigenvalues --  -10.53716 -10.52007 -10.52006 -10.52005  -0.89823
 Alpha  occ. eigenvalues --   -0.76983  -0.76983  -0.63753  -0.53054  -0.49560
 Alpha  occ. eigenvalues --   -0.49559  -0.44478  -0.44478  -0.42320  -0.38365
 Alpha  occ. eigenvalues --   -0.38364  -0.37834
 Alpha virt. eigenvalues --    0.06455   0.11225   0.11800   0.11801   0.13304
 Alpha virt. eigenvalues --    0.13925   0.13925   0.17398   0.18776   0.18776
 Alpha virt. eigenvalues --    0.20402   0.20402   0.20595   0.24674   0.24674

 Mulliken charges:
               1
     1  C   -0.421191
     2  H    0.137167
     3  H    0.139472
     4  H    0.139404
     5  C   -0.100439
     6  H    0.116214
     7  C   -0.421317
     8  H    0.139466
     9  H    0.139448
    10  H    0.137147
    11  C   -0.421423
    12  H    0.139447
    13  H    0.139422
    14  H    0.137182
 Sum of Mulliken charges =   0.00000

 Dipole moment (field-independent basis, Debye):
    X=              0.0001    Y=              0.0000    Z=              0.1372  Tot=              0.1372
 Quadrupole moment (field-independent basis, Debye-Ang):
   XX=            -29.0435   YY=            -29.0436   ZZ=            -28.4674
   XY=              0.0001   XZ=              0.0003   YZ=              0.0000

 1\1\GINC-COMPUTE-0-7\SP\RM062X\def2TZVP\C4H10\HETANJIN\05-Oct-2015\0\\
 #p M062X/def2TZVP\\using B3LYP/6-31G(d) to do opt and freq calc.\\0,1\
 C,0,-0.435141,1.395712,0.095871\H,0,-0.452653,1.451638,1.192414\H,0,-1
 .440607,1.643255,-0.265301\H,0,0.251581,2.170788,-0.265179\C,0,0.,0.,-
 0.372986\H,0,0.000006,0.000005,-1.473541\C,0,-0.991158,-1.074698,0.095
 871\H,0,-2.005741,-0.867509,-0.265213\H,0,-0.702812,-2.069239,-0.26528
 2\H,0,-1.030861,-1.117806,1.192417\C,0,1.426301,-0.321015,0.095869\H,0
 ,1.754214,-1.303216,-0.265295\H,0,2.143399,0.426043,-0.265184\H,0,1.48

 Normal termination of Gaussian 09 at Mon Oct  5 16:16:19 2015.
