 Gaussian 09, Revision D.01,
 Gaussian 09:  ES64L-G09RevD.01 24-Apr-2013

 -----------------
 #p M062X/def2TZVP
 -----------------

 ---------------------------------------------
 using B3LYP/6-31G(d) to do opt and freq calc.
 ---------------------------------------------
 Symbolic Z-matrix:
 Charge =  0 Multiplicity = 1

                         Standard orientation:
 ---------------------------------------------------------------------
 Center     Atomic      Atomic             Coordinates (Angstroms)
 Number     Number       Type             X           Y           Z
 ---------------------------------------------------------------------
      1          6           0        0.704505    1.835338    0.000000
      2          1           0        0.190658    2.231621    0.884626
      3          1           0        0.190658    2.231621   -0.884626
      4          1           0        1.724309    2.236988    0.000000
      5          6           0        0.704505    0.303360    0.000000
      6          1           0        1.255244   -0.063623   -0.878056
      7          1           0        1.255244   -0.063623    0.878056
      8          6           0       -0.704505   -0.303360    0.000000
      9          1           0       -1.255244    0.063623   -0.878056
     10          1           0       -1.255244    0.063623    0.878056
     11          6           0       -0.704505   -1.835338    0.000000
     12          1           0       -0.190658   -2.231621    0.884626
     13          1           0       -1.724309   -2.236988    0.000000
     14          1           0       -0.190658   -2.231621   -0.884626
 ---------------------------------------------------------------------

 SCF Done:  E(RM062X) =  -158.418256679     A.U. after   13 cycles

 The electronic state is 1-AG.
 Alpha  occ. eigenvalues --  -10.52776 -10.52741 -10.52093 -10.52093  -0.88966
 Alpha  occ. eigenvalues --   -0.81482  -0.71452  -0.65548  -0.53692  -0.49100
 Alpha  occ. eigenvalues --   -0.48269  -0.47502  -0.42897  -0.41009  -0.39008
 Alpha  occ. eigenvalues --   -0.37969  -0.37834
 Alpha virt. eigenvalues --    0.06917   0.09034   0.11376   0.11582   0.14077
 Alpha virt. eigenvalues --    0.14574   0.15654   0.16538   0.17623   0.18004
 Alpha virt. eigenvalues --    0.19621   0.20422   0.23404   0.25529   0.26954

 Mulliken charges:
               1
     1  C   -0.422555
     2  H    0.135182
     3  H    0.135182
     4  H    0.140152
     5  C   -0.239904
     6  H    0.125971
     7  H    0.125971
     8  C   -0.239904
     9  H    0.125971
    10  H    0.125971
    11  C   -0.422555
    12  H    0.135182
    13  H    0.140152
    14  H    0.135182
 Sum of Mulliken charges =   0.00000

 Dipole moment (field-independent basis, Debye):
    X=              0.0000    Y=              0.0000    Z=              0.0000  Tot=              0.0000
 Quadrupole moment (field-independent basis, Debye-Ang):
   XX=            -28.6363   YY=            -29.5949   ZZ=            -28.1407
   XY=              0.0402   XZ=              0.0000   YZ=              0.0000

 1\1\GINC-COMPUTE-0-0\SP\RM062X\def2TZVP\C4H10\HETANJIN\05-Oct-2015\0\\
 #p M062X/def2TZVP\\using B3LYP/6-31G(d) to do opt and freq calc.\\0,1\
 C,0,0.704505,1.835338,0.\H,0,0.190658,2.231621,0.884626\H,0,0.190658,2
 .231621,-0.884626\H,0,1.724309,2.236988,0.\C,0,0.704505,0.30336,0.\H,0
 ,1.255244,-0.063623,-0.878056\H,0,1.255244,-0.063623,0.878056\C,0,-0.7
 04505,-0.30336,0.\H,0,-1.255244,0.063623,-0.878056\H,0,-1.255244,0.063
 623,0.878056\C,0,-0.704505,-1.835338,0.\H,0,-0.190658,-2.231621,0.8846
 26\H,0,-1.724309,-2.236988,0.\H,0,-0.190658,-2.231621,-0.884626\\Versi

 Normal termination of Gaussian 09 at Mon Oct  5 16:15:30 2015.
