 Gaussian 09, Revision A.01,
 Gaussian 09:  EM64L-G09RevA.01  8-May-2009

 ---------------------------
 #p ub3lyp/6-31G(d) opt freq
 ---------------------------

 -----------------------------
 using ub3lyp/6-31G(d) to scan
 -----------------------------
 Symbolic Z-matrix:
 Charge =  0 Multiplicity = 1

 SCF Done:  E(UB3LYP) =  -196.524397132     A.U. after   12 cycles
 SCF Done:  E(UB3LYP) =  -196.528076782     A.U. after   13 cycles
 SCF Done:  E(UB3LYP) =  -196.528228855     A.U. after   10 cycles
 SCF Done:  E(UB3LYP) =  -196.528309865     A.U. after   13 cycles
 SCF Done:  E(UB3LYP) =  -196.528415823     A.U. after   13 cycles
 SCF Done:  E(UB3LYP) =  -196.528134737     A.U. after   11 cycles
 SCF Done:  E(UB3LYP) =  -196.528310275     A.U. after   13 cycles
 SCF Done:  E(UB3LYP) =  -196.528484486     A.U. after   13 cycles
 SCF Done:  E(UB3LYP) =  -196.528645716     A.U. after   10 cycles
 SCF Done:  E(UB3LYP) =  -196.528978570     A.U. after   13 cycles
 SCF Done:  E(UB3LYP) =  -196.514937508     A.U. after   11 cycles
 SCF Done:  E(UB3LYP) =  -196.529777233     A.U. after   11 cycles
 SCF Done:  E(UB3LYP) =  -196.529716837     A.U. after   11 cycles
 SCF Done:  E(UB3LYP) =  -196.529943169     A.U. after   10 cycles
 SCF Done:  E(UB3LYP) =  -196.530180526     A.U. after   10 cycles
 SCF Done:  E(UB3LYP) =  -196.530272430     A.U. after   13 cycles
 SCF Done:  E(UB3LYP) =  -196.530273602     A.U. after   12 cycles
 SCF Done:  E(UB3LYP) =  -196.530273765     A.U. after   12 cycles
 SCF Done:  E(UB3LYP) =  -196.530273804     A.U. after   12 cycles
 Optimization completed.
    -- Stationary point found.
 Normal termination of Gaussian 09 at Sat Jun  6 00:40:32 2015.

 --------------------------------------------------------------------
 #P Geom=AllCheck Guess=TCheck SCRF=Check GenChk UB3LYP/6-31G(d) Freq
 --------------------------------------------------------------------

 using ub3lyp/6-31G(d) to scan
 -----------------------------
 Redundant internal coordinates taken from checkpoint file:
 C5H10_8_1_opt_631gd.chk
 Charge =  0 Multiplicity = 1

                         Standard orientation:
 ---------------------------------------------------------------------
 Center     Atomic      Atomic             Coordinates (Angstroms)
 Number     Number       Type             X           Y           Z
 ---------------------------------------------------------------------
      1          6           0        1.613217    0.000000    0.058838
      2          6           0        0.500914    1.082333    0.070767
      3          6           0       -0.507052    0.000000   -0.414080
      4          6           0        0.500915   -1.082334    0.070767
      5          1           0        2.169648    0.000000   -0.884821
      6          1           0        2.332468    0.000000    0.884148
      7          1           0        0.639113    1.971086   -0.554459
      8          1           0        0.268322    1.409353    1.091635
      9          1           0       -0.539839    0.000000   -1.511884
     10          1           0        0.639114   -1.971086   -0.554460
     11          1           0        0.268323   -1.409353    1.091636
     12          6           0       -1.924180    0.000000    0.142193
     13          1           0       -2.482777    0.885691   -0.186191
     14          1           0       -2.482777   -0.885691   -0.186192
     15          1           0       -1.914477    0.000000    1.239676
 ---------------------------------------------------------------------

 SCF Done:  E(UB3LYP) =  -196.530273804     A.U. after    1 cycles

 The electronic state is 1-A.
 Alpha  occ. eigenvalues --  -10.18168 -10.17519 -10.17329 -10.17328 -10.16939
 Alpha  occ. eigenvalues --   -0.83573  -0.71670  -0.64857  -0.60866  -0.53740
 Alpha  occ. eigenvalues --   -0.47380  -0.44761  -0.40790  -0.40309  -0.37813
 Alpha  occ. eigenvalues --   -0.35378  -0.32627  -0.30954  -0.29239  -0.28995
 Alpha virt. eigenvalues --    0.09386   0.10900   0.11857   0.14223   0.16715
 Alpha virt. eigenvalues --    0.17252   0.17532   0.19150   0.19455   0.19642
 Alpha virt. eigenvalues --    0.21349   0.23125   0.24023   0.28519   0.35509

  Beta  occ. eigenvalues --  -10.18168 -10.17519 -10.17329 -10.17328 -10.16939
  Beta  occ. eigenvalues --   -0.83573  -0.71670  -0.64857  -0.60866  -0.53740
  Beta  occ. eigenvalues --   -0.47380  -0.44761  -0.40790  -0.40309  -0.37813
  Beta  occ. eigenvalues --   -0.35378  -0.32627  -0.30954  -0.29239  -0.28995
  Beta virt. eigenvalues --    0.09386   0.10900   0.11857   0.14223   0.16715
  Beta virt. eigenvalues --    0.17252   0.17532   0.19150   0.19455   0.19642
  Beta virt. eigenvalues --    0.21349   0.23125   0.24023   0.28519   0.35509

 Mulliken atomic charges:
              1
     1  C   -0.276487
     2  C   -0.274895
     3  C   -0.063546
     4  C   -0.274895
     5  H    0.136299
     6  H    0.133169
     7  H    0.132005
     8  H    0.131561
     9  H    0.122393
    10  H    0.132005
    11  H    0.131561
    12  C   -0.449430
    13  H    0.141691
    14  H    0.141691
    15  H    0.136879
 Sum of Mulliken atomic charges =   0.00000

 Dipole moment (field-independent basis, Debye):
    X=             -0.0466    Y=              0.0000    Z=             -0.0776  Tot=              0.0905
 Quadrupole moment (field-independent basis, Debye-Ang):
   XX=            -33.7593   YY=            -33.4612   ZZ=            -32.3334
   XY=              0.0000   XZ=             -0.0244   YZ=              0.0000

  Exact polarizability:  55.596   0.000  50.635   0.081   0.000  47.448
 Approx polarizability:  67.551   0.000  67.851   0.020   0.000  68.842

                     1                      2                      3
                     A                      A                      A
 Frequencies --   151.0033               234.3981               311.5032
 Red. masses --     1.8395                 1.0532                 2.1289
 Frc consts  --     0.0247                 0.0341                 0.1217
 IR Inten    --     0.0245                 0.0285                 0.0580

                     4                      5                      6
                     A                      A                      A
 Frequencies --   409.4430               610.1149               758.6595
 Red. masses --     1.8871                 2.2746                 1.5445
 Frc consts  --     0.1864                 0.4989                 0.5238
 IR Inten    --     0.0248                 2.1058                 0.0798

                     7                      8                      9
                     A                      A                      A
 Frequencies --   786.9834               897.2973               900.5846
 Red. masses --     1.2110                 1.9914                 1.9943
 Frc consts  --     0.4419                 0.9447                 0.9530
 IR Inten    --     1.0640                 1.0544                 0.0292

                    10                     11                     12
                     A                      A                      A
 Frequencies --   940.3142               942.4695               985.9575
 Red. masses --     2.3596                 1.3796                 2.1983
 Frc consts  --     1.2292                 0.7220                 1.2591
 IR Inten    --     1.2380                 0.7578                 0.9016

                    13                     14                     15
                     A                      A                      A
 Frequencies --   986.6435              1124.2741              1143.6167
 Red. masses --     1.0343                 2.6461                 1.6238
 Frc consts  --     0.5932                 1.9706                 1.2512
 IR Inten    --     0.5452                 0.4236                 1.5241

                    16                     17                     18
                     A                      A                      A
 Frequencies --  1200.6433              1223.3113              1265.6715
 Red. masses --     2.0997                 1.3699                 1.3401
 Frc consts  --     1.7834                 1.2079                 1.2648
 IR Inten    --     0.2834                 0.0221                 0.1538

                    19                     20                     21
                     A                      A                      A
 Frequencies --  1270.1128              1277.6469              1296.7389
 Red. masses --     1.2693                 1.2419                 1.4562
 Frc consts  --     1.2064                 1.1945                 1.4427
 IR Inten    --     0.0455                 0.6025                 0.5277

                    22                     23                     24
                     A                      A                      A
 Frequencies --  1315.3985              1393.1456              1436.3190
 Red. masses --     1.4382                 1.4607                 1.2835
 Frc consts  --     1.4662                 1.6703                 1.5601
 IR Inten    --     0.1612                 7.0002                 2.2039

                    25                     26                     27
                     A                      A                      A
 Frequencies --  1508.5212              1515.4701              1525.7451
 Red. masses --     1.0895                 1.0817                 1.0480
 Frc consts  --     1.4608                 1.4637                 1.4374
 IR Inten    --     0.3199                 1.2467                 6.4644

                    28                     29                     30
                     A                      A                      A
 Frequencies --  1526.1364              1542.2998              3032.8349
 Red. masses --     1.0508                 1.1359                 1.0361
 Frc consts  --     1.4420                 1.5920                 5.6150
 IR Inten    --     2.0998                 1.5552                29.7583

                    31                     32                     33
                     A                      A                      A
 Frequencies --  3037.9980              3052.5435              3057.7988
 Red. masses --     1.0840                 1.0586                 1.0597
 Frc consts  --     5.8946                 5.8115                 5.8377
 IR Inten    --    13.2099                66.4420                21.2508

                    34                     35                     36
                     A                      A                      A
 Frequencies --  3067.3467              3096.7351              3098.5703
 Red. masses --     1.0625                 1.1031                 1.1019
 Frc consts  --     5.8900                 6.2325                 6.2332
 IR Inten    --    33.5431                27.1255                37.2564

                    37                     38                     39
                     A                      A                      A
 Frequencies --  3103.5322              3105.2715              3122.8411
 Red. masses --     1.1040                 1.1073                 1.1077
 Frc consts  --     6.2650                 6.2911                 6.3648
 IR Inten    --    25.8467                25.7933                95.8572

 - Thermochemistry -
 -------------------
 Temperature   298.150 Kelvin.  Pressure   1.00000 Atm.
 Atom     1 has atomic number  6 and mass  12.00000

 Molecular mass:    70.07825 amu.
 Principal axes and moments of inertia in atomic units:
                           1         2         3
     Eigenvalues --   187.50650 440.44687 549.55785
           X            0.99998   0.00000  -0.00606
           Y            0.00000   1.00000   0.00000
           Z            0.00606   0.00000   0.99998
 This molecule is an asymmetric top.
 Rotational symmetry number  1.
 Rotational temperatures (Kelvin)      0.46192     0.19665     0.15761
 Rotational constants (GHZ):           9.62495     4.09752     3.28399
 Zero-point vibrational energy     366391.6 (Joules/Mol)
                                   87.56970 (Kcal/Mol)
 Warning -- explicit consideration of   5 degrees of freedom as
           vibrations may cause significant error
 Vibrational temperatures:    217.26   337.25   448.18   589.10   877.82
          (Kelvin)           1091.54  1132.29  1291.01  1295.74  1352.90
                             1356.00  1418.57  1419.56  1617.58  1645.41
                             1727.46  1760.07  1821.02  1827.41  1838.25
                             1865.72  1892.56  2004.42  2066.54  2170.42
                             2180.42  2195.20  2195.77  2219.02  4363.57
                             4371.00  4391.92  4399.48  4413.22  4455.51
                             4458.15  4465.29  4467.79  4493.07

 Zero-point correction=                           0.139551 (Hartree/Particle)
 Thermal correction to Energy=                    0.145018
 Thermal correction to Enthalpy=                  0.145962
 Thermal correction to Gibbs Free Energy=         0.111375
 Sum of electronic and zero-point Energies=           -196.390723
 Sum of electronic and thermal Energies=              -196.385256
 Sum of electronic and thermal Enthalpies=            -196.384311
 Sum of electronic and thermal Free Energies=         -196.418899

                     E (Thermal)             CV                S
                      KCal/Mol        Cal/Mol-Kelvin    Cal/Mol-Kelvin
 Total                   91.000             20.063             72.796
 Electronic               0.000              0.000              0.000
 Translational            0.889              2.981             38.658
 Rotational               0.889              2.981             25.321
 Vibrational             89.223             14.101              8.817
 Vibration     1          0.618              1.902              2.660
 Vibration     2          0.654              1.788              1.845
 Vibration     3          0.700              1.652              1.354
 Vibration     4          0.774              1.450              0.929
 Vibration     5          0.969              1.010              0.433

 Optimization completed.
    -- Stationary point found.
 Normal termination of Gaussian 09 at Sat Jun  6 00:41:28 2015.
