 Gaussian 09, Revision A.01,
 Gaussian 09:  EM64L-G09RevA.01  8-May-2009

 --------------------------
 #p b3lyp/6-31g(d) opt freq
 --------------------------

 -----------------------------
 using ub3lyp/6-31G(d) to scan
 -----------------------------
 Symbolic Z-matrix:
 Charge =  0 Multiplicity = 1

 SCF Done:  E(RB3LYP) =  -196.543586037     A.U. after   13 cycles
 SCF Done:  E(RB3LYP) =  -196.543586498     A.U. after    7 cycles
 SCF Done:  E(RB3LYP) =  -196.543586812     A.U. after    7 cycles
 SCF Done:  E(RB3LYP) =  -196.543586986     A.U. after    6 cycles
 SCF Done:  E(RB3LYP) =  -196.543587054     A.U. after    7 cycles
 Optimization completed.
    -- Stationary point found.
 Normal termination of Gaussian 09 at Sat Aug 22 15:17:18 2015.

 --------------------------------------------------------------------
 #P Geom=AllCheck Guess=TCheck SCRF=Check GenChk RB3LYP/6-31G(d) Freq
 --------------------------------------------------------------------

 using ub3lyp/6-31G(d) to scan
 -----------------------------
 Redundant internal coordinates taken from checkpoint file:
 C5H10_6_2_opt_631gd.chk
 Charge =  0 Multiplicity = 1

                         Standard orientation:
 ---------------------------------------------------------------------
 Center     Atomic      Atomic             Coordinates (Angstroms)
 Number     Number       Type             X           Y           Z
 ---------------------------------------------------------------------
      1          6           0       -0.734308   -0.671543    0.000008
      2          6           0        0.449687   -0.040301   -0.000007
      3          6           0        0.629907    1.458163   -0.000002
      4          1           0       -0.313908    2.008247   -0.000874
      5          1           0       -0.714051   -1.762803    0.000033
      6          1           0        1.205956    1.779758   -0.879101
      7          6           0        1.741304   -0.824168   -0.000004
      8          1           0        2.353695   -0.580784   -0.880072
      9          1           0        2.353938   -0.580369    0.879776
     10          1           0        1.563870   -1.904376    0.000280
     11          1           0        1.204432    1.779944    0.880034
     12          6           0       -2.115194   -0.077902   -0.000009
     13          1           0       -2.683445   -0.410143    0.879883
     14          1           0       -2.115312    1.015404   -0.000134
     15          1           0       -2.683546   -0.410374   -0.879745
 ---------------------------------------------------------------------

 SCF Done:  E(RB3LYP) =  -196.543587054     A.U. after    1 cycles

 The electronic state is 1-A.
 Alpha  occ. eigenvalues --  -10.18388 -10.17521 -10.17519 -10.17384 -10.17251
 Alpha  occ. eigenvalues --   -0.80306  -0.72718  -0.68547  -0.63063  -0.50732
 Alpha  occ. eigenvalues --   -0.45541  -0.42808  -0.42631  -0.39871  -0.37884
 Alpha  occ. eigenvalues --   -0.37735  -0.36376  -0.35095  -0.32311  -0.22564
 Alpha virt. eigenvalues --    0.03799   0.09832   0.12284   0.13145   0.15264
 Alpha virt. eigenvalues --    0.16612   0.17035   0.18175   0.19856   0.20367
 Alpha virt. eigenvalues --    0.22986   0.24205   0.25420   0.33397   0.45331

 Mulliken atomic charges:
              1
     1  C   -0.153927
     2  C    0.193797
     3  C   -0.512329
     4  H    0.152280
     5  H    0.110869
     6  H    0.150600
     7  C   -0.505299
     8  H    0.147508
     9  H    0.147502
    10  H    0.149584
    11  H    0.150622
    12  C   -0.486919
    13  H    0.152546
    14  H    0.150625
    15  H    0.152542
 Sum of Mulliken atomic charges =   0.00000

 Dipole moment (field-independent basis, Debye):
    X=              0.0629    Y=              0.1651    Z=              0.0001  Tot=              0.1766
 Quadrupole moment (field-independent basis, Debye-Ang):
   XX=            -31.8739   YY=            -32.2750   ZZ=            -33.9593
   XY=              0.2857   XZ=              0.0000   YZ=              0.0001

  Exact polarizability:  71.334   5.794  53.884   0.000   0.001  38.485
 Approx polarizability:  96.162  13.492  73.188   0.000   0.001  53.724

                     1                      2                      3
                     A                      A                      A
 Frequencies --   126.8339               153.5146               188.2074
 Red. masses --     1.0372                 1.0316                 1.2197
 Frc consts  --     0.0098                 0.0143                 0.0255
 IR Inten    --     0.5676                 0.0866                 1.1826

                     4                      5                      6
                     A                      A                      A
 Frequencies --   266.9336               299.6783               386.6623
 Red. masses --     1.7506                 2.6213                 2.2266
 Frc consts  --     0.0735                 0.1387                 0.1961
 IR Inten    --     1.2552                 0.2485                 0.3406

                     7                      8                      9
                     A                      A                      A
 Frequencies --   456.2668               527.7395               774.9587
 Red. masses --     2.2543                 2.8038                 2.9035
 Frc consts  --     0.2765                 0.4601                 1.0274
 IR Inten    --     1.9042                 2.1738                 1.6572

                    10                     11                     12
                     A                      A                      A
 Frequencies --   838.4817               970.9867               982.0721
 Red. masses --     1.1294                 1.5953                 1.5077
 Frc consts  --     0.4678                 0.8862                 0.8567
 IR Inten    --    10.5141                 2.2750                 1.5095

                    13                     14                     15
                     A                      A                      A
 Frequencies --  1032.7286              1075.1673              1080.8926
 Red. masses --     1.2392                 1.5196                 1.7205
 Frc consts  --     0.7787                 1.0350                 1.1843
 IR Inten    --     1.8772                 0.6446                 5.5047

                    16                     17                     18
                     A                      A                      A
 Frequencies --  1120.3509              1144.5445              1248.3653
 Red. masses --     1.6298                 1.9590                 2.5680
 Frc consts  --     1.2053                 1.5120                 2.3579
 IR Inten    --     0.4814                 9.4616                 5.0995

                    19                     20                     21
                     A                      A                      A
 Frequencies --  1392.5776              1441.2895              1442.6450
 Red. masses --     1.2950                 1.4120                 1.2481
 Frc consts  --     1.4796                 1.7281                 1.5304
 IR Inten    --     4.5899                 1.8572                 2.9052

                    22                     23                     24
                     A                      A                      A
 Frequencies --  1455.3335              1502.9988              1513.4044
 Red. masses --     1.2221                 1.0462                 1.0450
 Frc consts  --     1.5251                 1.3924                 1.4102
 IR Inten    --     0.4498                 0.6666                 1.7442

                    25                     26                     27
                     A                      A                      A
 Frequencies --  1513.7049              1521.8754              1528.8735
 Red. masses --     1.0469                 1.0423                 1.0572
 Frc consts  --     1.4133                 1.4223                 1.4560
 IR Inten    --     1.0692                15.6021                 9.2929

                    28                     29                     30
                     A                      A                      A
 Frequencies --  1529.2022              1760.8699              3022.1955
 Red. masses --     1.0783                 6.0282                 1.0392
 Frc consts  --     1.4857                11.0127                 5.5923
 IR Inten    --     1.5315                 0.8716                26.5553

                    31                     32                     33
                     A                      A                      A
 Frequencies --  3029.3014              3032.2039              3065.0673
 Red. masses --     1.0405                 1.0419                 1.0998
 Frc consts  --     5.6259                 5.6443                 6.0876
 IR Inten    --    82.8340                 7.6847                14.5525

                    34                     35                     36
                     A                      A                      A
 Frequencies --  3069.9140              3070.6268              3119.3137
 Red. masses --     1.0994                 1.0999                 1.0984
 Frc consts  --     6.1047                 6.1101                 6.2969
 IR Inten    --    24.6852                49.9220                18.1710

                    37                     38                     39
                     A                      A                      A
 Frequencies --  3125.1305              3138.9031              3147.9799
 Red. masses --     1.0930                 1.0923                 1.0935
 Frc consts  --     6.2893                 6.3411                 6.3844
 IR Inten    --     4.4120                31.8998                53.7769

 - Thermochemistry -
 -------------------
 Temperature   298.150 Kelvin.  Pressure   1.00000 Atm.
 Atom     1 has atomic number  6 and mass  12.00000

 Molecular mass:    70.07825 amu.
 Principal axes and moments of inertia in atomic units:
                           1         2         3
     Eigenvalues --   225.42663 516.43690 708.43623
           X            0.99996  -0.00897   0.00000
           Y            0.00897   0.99996   0.00000
           Z            0.00000   0.00000   1.00000
 This molecule is an asymmetric top.
 Rotational symmetry number  1.
 Rotational temperatures (Kelvin)      0.38422     0.16771     0.12226
 Rotational constants (GHZ):           8.00589     3.49460     2.54750
 Zero-point vibrational energy     359464.6 (Joules/Mol)
                                   85.91411 (Kcal/Mol)
 Warning -- explicit consideration of   8 degrees of freedom as
           vibrations may cause significant error
 Vibrational temperatures:    182.49   220.87   270.79   384.06   431.17
          (Kelvin)            556.32   656.47   759.30  1114.99  1206.39
                             1397.03  1412.98  1485.86  1546.92  1555.16
                             1611.93  1646.74  1796.12  2003.61  2073.69
                             2075.64  2093.90  2162.48  2177.45  2177.88
                             2189.64  2199.71  2200.18  2533.50  4348.26
                             4358.48  4362.66  4409.94  4416.92  4417.94
                             4487.99  4496.36  4516.18  4529.24

 Zero-point correction=                           0.136913 (Hartree/Particle)
 Thermal correction to Energy=                    0.143750
 Thermal correction to Enthalpy=                  0.144694
 Thermal correction to Gibbs Free Energy=         0.107176
 Sum of electronic and zero-point Energies=           -196.406674
 Sum of electronic and thermal Energies=              -196.399837
 Sum of electronic and thermal Enthalpies=            -196.398893
 Sum of electronic and thermal Free Energies=         -196.436411

                     E (Thermal)             CV                S
                      KCal/Mol        Cal/Mol-Kelvin    Cal/Mol-Kelvin
 Total                   90.205             23.630             78.963
 Electronic               0.000              0.000              0.000
 Translational            0.889              2.981             38.658
 Rotational               0.889              2.981             25.914
 Vibrational             88.427             17.669             14.390
 Vibration     1          0.611              1.926              2.994
 Vibration     2          0.619              1.899              2.628
 Vibration     3          0.633              1.856              2.245
 Vibration     4          0.672              1.734              1.616
 Vibration     5          0.692              1.674              1.419
 Vibration     6          0.755              1.499              1.013
 Vibration     7          0.814              1.347              0.777
 Vibration     8          0.883              1.189              0.592

 Optimization completed.
    -- Stationary point found.
 Normal termination of Gaussian 09 at Sat Aug 22 15:17:35 2015.
