 Gaussian 09, Revision D.01,
 Gaussian 09:  ES64L-G09RevD.01 24-Apr-2013

 -----------------
 #p M062X/def2TZVP
 -----------------

 ---------------------------------------------
 using B3LYP/6-31G(d) to do opt and freq calc.
 ---------------------------------------------
 Symbolic Z-matrix:
 Charge =  0 Multiplicity = 1

                         Standard orientation:
 ---------------------------------------------------------------------
 Center     Atomic      Atomic             Coordinates (Angstroms)
 Number     Number       Type             X           Y           Z
 ---------------------------------------------------------------------
      1          6           0       -1.742256   -0.821724   -0.010751
      2          1           0       -1.922228   -0.857823    1.071889
      3          1           0       -1.648515   -1.854923   -0.366329
      4          1           0       -2.631968   -0.384600   -0.479570
      5          6           0       -0.482643   -0.002681   -0.329739
      6          1           0       -0.349146   -0.003316   -1.423210
      7          6           0        0.764450   -0.664680    0.289758
      8          1           0        0.773650   -1.725323    0.001711
      9          1           0        0.667104   -0.649695    1.385801
     10          6           0        2.101623   -0.032686   -0.113732
     11          1           0        2.190482    1.001288    0.237340
     12          1           0        2.943219   -0.594430    0.307619
     13          1           0        2.221892   -0.024561   -1.204476
     14          6           0       -0.659568    1.455052    0.121802
     15          1           0       -0.773233    1.513964    1.212642
     16          1           0        0.194493    2.080646   -0.158939
     17          1           0       -1.555386    1.899089   -0.328505
 ---------------------------------------------------------------------

 SCF Done:  E(RM062X) =  -197.726465932     A.U. after   13 cycles

 The electronic state is 1-A.
 Alpha  occ. eigenvalues --  -10.53564 -10.52713 -10.52105 -10.51974 -10.51968
 Alpha  occ. eigenvalues --   -0.90591  -0.82390  -0.76973  -0.70799  -0.63281
 Alpha  occ. eigenvalues --   -0.53333  -0.51002  -0.49390  -0.47402  -0.44555
 Alpha  occ. eigenvalues --   -0.44144  -0.41878  -0.40739  -0.37737  -0.37531
 Alpha  occ. eigenvalues --   -0.36927
 Alpha virt. eigenvalues --    0.06624   0.09270   0.10422   0.11011   0.13221
 Alpha virt. eigenvalues --    0.13487   0.14278   0.15152   0.16447   0.17085
 Alpha virt. eigenvalues --    0.18471   0.18837   0.19149   0.21083   0.22636

 Mulliken charges:
               1
     1  C   -0.427689
     2  H    0.139655
     3  H    0.140468
     4  H    0.141205
     5  C   -0.106553
     6  H    0.123284
     7  C   -0.242650
     8  H    0.131159
     9  H    0.134855
    10  C   -0.442182
    11  H    0.141892
    12  H    0.143513
    13  H    0.137533
    14  C   -0.442868
    15  H    0.140467
    16  H    0.145771
    17  H    0.142138
 Sum of Mulliken charges =   0.00000

 Dipole moment (field-independent basis, Debye):
    X=              0.0303    Y=             -0.0520    Z=             -0.0798  Tot=              0.1000
 Quadrupole moment (field-independent basis, Debye-Ang):
   XX=            -35.9398   YY=            -35.7212   ZZ=            -35.1546
   XY=             -0.3198   XZ=              0.2632   YZ=              0.0853

 Normal termination of Gaussian 09 at Mon Oct  5 16:18:03 2015.
