 Gaussian 09, Revision D.01,
 Gaussian 09:  ES64L-G09RevD.01 24-Apr-2013

 -----------------
 #p M062X/def2TZVP
 -----------------

 ---------------------------------------------
 using B3LYP/6-31G(d) to do opt and freq calc.
 ---------------------------------------------
 Symbolic Z-matrix:
 Charge =  0 Multiplicity = 1

                         Standard orientation:
 ---------------------------------------------------------------------
 Center     Atomic      Atomic             Coordinates (Angstroms)
 Number     Number       Type             X           Y           Z
 ---------------------------------------------------------------------
      1          6           0        0.000000    0.323626    2.560911
      2          1           0       -0.884601    0.970851    2.607394
      3          1           0        0.884602    0.970850    2.607394
      4          1           0       -0.000001   -0.304770    3.458969
      5          6           0       -0.000001   -0.522982    1.283938
      6          1           0        0.878036   -1.184646    1.283425
      7          1           0       -0.878039   -1.184644    1.283425
      8          6           0        0.000000    0.316408    0.000000
      9          1           0        0.878510    0.979272    0.000000
     10          1           0       -0.878509    0.979273    0.000000
     11          6           0       -0.000001   -0.522982   -1.283938
     12          1           0       -0.878039   -1.184644   -1.283425
     13          1           0        0.878036   -1.184646   -1.283425
     14          6           0        0.000000    0.323626   -2.560911
     15          1           0        0.884602    0.970850   -2.607394
     16          1           0       -0.000001   -0.304770   -3.458969
     17          1           0       -0.884601    0.970851   -2.607394
 ---------------------------------------------------------------------

 SCF Done:  E(RM062X) =  -197.725252644     A.U. after   13 cycles

 The electronic state is 1-A'.
 Alpha  occ. eigenvalues --  -10.52771 -10.52769 -10.52571 -10.52092 -10.52092
 Alpha  occ. eigenvalues --   -0.89763  -0.84341  -0.76332  -0.68051  -0.65386
 Alpha  occ. eigenvalues --   -0.54399  -0.50279  -0.49736  -0.46576  -0.45691
 Alpha  occ. eigenvalues --   -0.43857  -0.41190  -0.39337  -0.38280  -0.37768
 Alpha  occ. eigenvalues --   -0.37105
 Alpha virt. eigenvalues --    0.06771   0.08371   0.10223   0.10862   0.12412
 Alpha virt. eigenvalues --    0.14636   0.15527   0.15635   0.15889   0.16231
 Alpha virt. eigenvalues --    0.16944   0.19640   0.20110   0.20544   0.21290

 Mulliken charges:
               1
     1  C   -0.423949
     2  H    0.135542
     3  H    0.135542
     4  H    0.140809
     5  C   -0.238406
     6  H    0.128182
     7  H    0.128182
     8  C   -0.272525
     9  H    0.130360
    10  H    0.130360
    11  C   -0.238406
    12  H    0.128182
    13  H    0.128182
    14  C   -0.423949
    15  H    0.135542
    16  H    0.140809
    17  H    0.135542
 Sum of Mulliken charges =   0.00000

 Dipole moment (field-independent basis, Debye):
    X=              0.0000    Y=             -0.0917    Z=              0.0000  Tot=              0.0917
 Quadrupole moment (field-independent basis, Debye-Ang):
   XX=            -34.7189   YY=            -35.8164   ZZ=            -36.1714
   XY=              0.0000   XZ=              0.0000   YZ=              0.0000

 1\1\GINC-COMPUTE-0-2\SP\RM062X\def2TZVP\C5H12\HETANJIN\05-Oct-2015\0\\
 #p M062X/def2TZVP\\using B3LYP/6-31G(d) to do opt and freq calc.\\0,1\
 C,0,-2.560911,0.323626,0.\H,0,-2.607394,0.970851,-0.884601\H,0,-2.6073
 94,0.97085,0.884602\H,0,-3.458969,-0.30477,-0.000001\C,0,-1.283938,-0.
 522982,-0.000001\H,0,-1.283425,-1.184646,0.878036\H,0,-1.283425,-1.184
 644,-0.878039\C,0,0.,0.316408,0.\H,0,0.,0.979272,0.87851\H,0,0.,0.9792
 73,-0.878509\C,0,1.283938,-0.522982,0.\H,0,1.283425,-1.184644,-0.87803
 8\H,0,1.283425,-1.184646,0.878037\C,0,2.560911,0.323626,0.000001\H,0,2

 Normal termination of Gaussian 09 at Mon Oct  5 16:17:11 2015.
