 Gaussian 09, Revision A.01,
 Gaussian 09:  EM64L-G09RevA.01  8-May-2009

 ------------------------
 #p ub3lyp/cbsb7 opt freq
 ------------------------

 -----------------------------
 using ub3lyp/6-31G(d) to scan
 -----------------------------
 Symbolic Z-matrix:
 Charge =  0 Multiplicity = 2

 SCF Done:  E(UB3LYP) =  -268.926954200     A.U. after   18 cycles
 SCF Done:  E(UB3LYP) =  -268.926979510     A.U. after   14 cycles
 SCF Done:  E(UB3LYP) =  -268.926982946     A.U. after   11 cycles
 SCF Done:  E(UB3LYP) =  -268.926983697     A.U. after   11 cycles
 Optimization completed.
    -- Stationary point found.
 Normal termination of Gaussian 09 at Sat Jun  6 17:51:12 2015.

 ----------------------------------------------------------------------
 #P Geom=AllCheck Guess=TCheck SCRF=Check GenChk UB3LYP/6-311G(2d,d,p)
 Freq
 ----------------------------------------------------------------------

 using ub3lyp/6-31G(d) to scan
 -----------------------------
 Redundant internal coordinates taken from checkpoint file:
 RO2_1_1_opt_631gd.chk
 Charge =  0 Multiplicity = 2

                         Standard orientation:
 ---------------------------------------------------------------------
 Center     Atomic      Atomic             Coordinates (Angstroms)
 Number     Number       Type             X           Y           Z
 ---------------------------------------------------------------------
      1          6           0       -2.297234   -0.105800    0.155947
      2          1           0       -2.346241   -0.152726    1.247803
      3          1           0       -2.664537    0.877477   -0.152990
      4          1           0       -2.987174   -0.854735   -0.238773
      5          6           0       -0.874643   -0.359548   -0.350938
      6          1           0       -0.530718   -1.350700   -0.043152
      7          1           0       -0.850672   -0.333691   -1.444916
      8          6           0        0.110724    0.667216    0.186330
      9          1           0       -0.111915    1.678111   -0.162292
     10          1           0        0.165264    0.653798    1.277027
     11          8           0        1.459038    0.418763   -0.315550
     12          8           0        2.002576   -0.634856    0.261707
 ---------------------------------------------------------------------

 SCF Done:  E(UB3LYP) =  -268.926983697     A.U. after    1 cycles

 The electronic state is 2-A.
 Alpha  occ. eigenvalues --  -19.23473 -19.18295 -10.23757 -10.18603 -10.17722
 Alpha  occ. eigenvalues --   -1.19182  -0.88367  -0.79157  -0.68554  -0.61431
 Alpha  occ. eigenvalues --   -0.52272  -0.51326  -0.49772  -0.45936  -0.43028
 Alpha  occ. eigenvalues --   -0.40075  -0.38792  -0.36931  -0.35461  -0.28039
 Alpha  occ. eigenvalues --   -0.27854
 Alpha virt. eigenvalues --    0.03415   0.05993   0.07041   0.08171   0.09928
 Alpha virt. eigenvalues --    0.11559   0.12754   0.13092   0.16163   0.19683
 Alpha virt. eigenvalues --    0.21743   0.28640   0.30179   0.31726   0.32482

  Beta  occ. eigenvalues --  -19.22484 -19.16349 -10.23795 -10.18569 -10.17723
  Beta  occ. eigenvalues --   -1.16497  -0.85651  -0.78350  -0.67795  -0.60995
  Beta  occ. eigenvalues --   -0.51064  -0.50629  -0.46192  -0.45184  -0.41446
  Beta  occ. eigenvalues --   -0.39217  -0.37947  -0.35551  -0.34852  -0.26244
  Beta virt. eigenvalues --   -0.10906   0.03483   0.06181   0.07090   0.08328
  Beta virt. eigenvalues --    0.10763   0.11660   0.12928   0.13112   0.17354
  Beta virt. eigenvalues --    0.19842   0.21924   0.28657   0.30232   0.31822

 Mulliken atomic charges:
              1
     1  C   -0.310500
     2  H    0.111256
     3  H    0.108138
     4  H    0.120018
     5  C   -0.242850
     6  H    0.133036
     7  H    0.121027
     8  C    0.008194
     9  H    0.119661
    10  H    0.126656
    11  O   -0.133357
    12  O   -0.161279
 Sum of Mulliken atomic charges =   0.00000

 Dipole moment (field-independent basis, Debye):
    X=             -2.7421    Y=              0.9417    Z=              0.1931  Tot=              2.9057
 Quadrupole moment (field-independent basis, Debye-Ang):
   XX=            -35.8083   YY=            -30.4798   ZZ=            -30.6562
   XY=              1.1734   XZ=              0.5105   YZ=              0.5967

  Exact polarizability:  50.952  -4.323  42.013   1.316  -1.261  37.471
 Approx polarizability:  61.667  -8.814  62.097   2.542  -5.285  53.297

                     1                      2                      3
                     A                      A                      A
 Frequencies --   104.6567               110.1143               235.8235
 Red. masses --     2.4152                 4.0115                 1.1054
 Frc consts  --     0.0156                 0.0287                 0.0362
 IR Inten    --     1.6379                 1.1513                 0.0301

                     4                      5                      6
                     A                      A                      A
 Frequencies --   264.2900               369.2384               559.1756
 Red. masses --     3.0864                 3.9690                 3.9381
 Frc consts  --     0.1270                 0.3188                 0.7255
 IR Inten    --     3.3517                 4.0734                 2.9124

                     7                      8                      9
                     A                      A                      A
 Frequencies --   768.6023               870.6453               899.7822
 Red. masses --     1.0872                 2.3140                 1.3417
 Frc consts  --     0.3784                 1.0335                 0.6400
 IR Inten    --     2.2547                 9.6655                 3.5908

                    10                     11                     12
                     A                      A                      A
 Frequencies --   936.5154              1039.7526              1123.3471
 Red. masses --     2.4264                 2.8666                 2.0918
 Frc consts  --     1.2538                 1.8259                 1.5552
 IR Inten    --    14.6993                 0.8157                 0.6161

                    13                     14                     15
                     A                      A                      A
 Frequencies --  1152.2555              1202.4658              1282.0335
 Red. masses --     4.0909                 2.1274                 1.2820
 Frc consts  --     3.2002                 1.8123                 1.2414
 IR Inten    --     4.2476                 5.0231                 3.0233

                    16                     17                     18
                     A                      A                      A
 Frequencies --  1323.1543              1326.8805              1398.3374
 Red. masses --     1.1306                 1.2743                 1.4199
 Frc consts  --     1.1662                 1.3218                 1.6358
 IR Inten    --     1.8090                 1.4774                 1.1325

                    19                     20                     21
                     A                      A                      A
 Frequencies --  1419.9407              1480.9735              1498.2083
 Red. masses --     1.2221                 1.0894                 1.0480
 Frc consts  --     1.4518                 1.4077                 1.3860
 IR Inten    --     2.7689                 1.6929                 1.1497

                    22                     23                     24
                     A                      A                      A
 Frequencies --  1503.3059              1512.8995              3026.1387
 Red. masses --     1.0381                 1.0885                 1.0369
 Frc consts  --     1.3822                 1.4679                 5.5947
 IR Inten    --     8.2934                 9.0952                20.6407

                    25                     26                     27
                     A                      A                      A
 Frequencies --  3037.4661              3056.9278              3069.6293
 Red. masses --     1.0602                 1.0567                 1.1006
 Frc consts  --     5.7629                 5.8181                 6.1104
 IR Inten    --    11.3629                31.9113                 1.9707

                    28                     29                     30
                     A                      A                      A
 Frequencies --  3090.7754              3099.4585              3118.3899
 Red. masses --     1.1036                 1.1003                 1.1105
 Frc consts  --     6.2117                 6.2280                 6.3627
 IR Inten    --    26.2164                29.9491                32.8647

 - Thermochemistry -
 -------------------
 Temperature   298.150 Kelvin.  Pressure   1.00000 Atm.
 Atom     1 has atomic number  6 and mass  12.00000

 Molecular mass:    75.04460 amu.
 Principal axes and moments of inertia in atomic units:
                           1         2         3
     Eigenvalues --   118.97524 723.84634 769.80796
           X            0.99996   0.00851  -0.00150
           Y           -0.00837   0.99708   0.07584
           Z            0.00214  -0.07583   0.99712
 This molecule is an asymmetric top.
 Rotational symmetry number  1.
 Rotational temperatures (Kelvin)      0.72800     0.11966     0.11251
 Rotational constants (GHZ):          15.16905     2.49327     2.34440
 Zero-point vibrational energy     262467.8 (Joules/Mol)
                                   62.73130 (Kcal/Mol)
 Warning -- explicit consideration of   6 degrees of freedom as
           vibrations may cause significant error
 Vibrational temperatures:    150.58   158.43   339.30   380.25   531.25
          (Kelvin)            804.53  1105.85  1252.66  1294.58  1347.44
                             1495.97  1616.24  1657.84  1730.08  1844.56
                             1903.72  1909.08  2011.89  2042.98  2130.79
                             2155.58  2162.92  2176.72  4353.93  4370.23
                             4398.23  4416.51  4446.93  4459.42  4486.66

 Zero-point correction=                           0.099969 (Hartree/Particle)
 Thermal correction to Energy=                    0.106147
 Thermal correction to Enthalpy=                  0.107091
 Thermal correction to Gibbs Free Energy=         0.069705
 Sum of electronic and zero-point Energies=           -268.827015
 Sum of electronic and thermal Energies=              -268.820837
 Sum of electronic and thermal Enthalpies=            -268.819892
 Sum of electronic and thermal Free Energies=         -268.857278

                     E (Thermal)             CV                S
                      KCal/Mol        Cal/Mol-Kelvin    Cal/Mol-Kelvin
 Total                   66.608             20.200             78.686
 Electronic               0.000              0.000              1.377
 Translational            0.889              2.981             38.862
 Rotational               0.889              2.981             25.697
 Vibrational             64.831             14.238             12.749
 Vibration     1          0.605              1.946              3.366
 Vibration     2          0.606              1.941              3.267
 Vibration     3          0.655              1.786              1.834
 Vibration     4          0.671              1.738              1.633
 Vibration     5          0.742              1.535              1.083
 Vibration     6          0.915              1.120              0.525

 Normal termination of Gaussian 09 at Sat Jun  6 17:52:03 2015.
