 Gaussian 09, Revision A.01,
 Gaussian 09:  EM64L-G09RevA.01  8-May-2009

 -------------------------------------------------
 #p ub3lyp/6-31g(d) opt=(modredundant) freq scf=qc
 -------------------------------------------------

 ---------------------------------------------------
 C3H7O2_62_b3631gd using cbs-qb3 to calculate energy
 ---------------------------------------------------
 Symbolic Z-matrix:
 Charge =  0 Multiplicity = 2

 SCF Done:  E(UB3LYP) =  -268.801088396     a.u. after   24 cycles
 SCF Done:  E(UB3LYP) =  -268.801299833     a.u. after    4 cycles
 SCF Done:  E(UB3LYP) =  -268.801330167     a.u. after    3 cycles
 SCF Done:  E(UB3LYP) =  -268.801333641     a.u. after    3 cycles
 SCF Done:  E(UB3LYP) =  -268.801336779     a.u. after    3 cycles
 SCF Done:  E(UB3LYP) =  -268.801337460     a.u. after    2 cycles
 SCF Done:  E(UB3LYP) =  -268.801338036     a.u. after    2 cycles
 SCF Done:  E(UB3LYP) =  -268.801338304     a.u. after    2 cycles
 SCF Done:  E(UB3LYP) =  -268.801338497     a.u. after    2 cycles
 Optimization completed.
    -- Stationary point found.
 Normal termination of Gaussian 09 at Wed Apr  1 01:07:20 2015.

 --------------------------------------------------------------------
 #P Geom=AllCheck Guess=TCheck SCRF=Check GenChk UB3LYP/6-31G(d) Freq
 --------------------------------------------------------------------

 C3H7O2_62_b3631gd using cbs-qb3 to calculate energy
 ---------------------------------------------------
 Redundant internal coordinates taken from checkpoint file:
 C3H7O2_62_b3631gd_216.chk
 Charge =  0 Multiplicity = 2

                         Standard orientation:
 ---------------------------------------------------------------------
 Center     Atomic      Atomic             Coordinates (Angstroms)
 Number     Number       Type             X           Y           Z
 ---------------------------------------------------------------------
      1          6           0       -1.779087   -0.936575    0.156401
      2          1           0       -0.971418   -1.625389   -0.109652
      3          1           0       -2.699347   -1.285199   -0.323830
      4          1           0       -1.924712   -0.990757    1.241785
      5          6           0       -1.437986    0.491926   -0.282353
      6          1           0       -1.333452    0.543951   -1.375226
      7          1           0       -2.282043    1.164714   -0.043268
      8          6           0       -0.206909    1.041184    0.349930
      9          1           0        0.184937    1.995707    0.010130
     10          1           0        0.048255    0.761373    1.368572
     11          8           0        1.368450   -0.155018   -0.522025
     12          8           0        2.321760   -0.362933    0.257978
 ---------------------------------------------------------------------

 SCF Done:  E(UB3LYP) =  -268.801338497     a.u. after    1 cycles

 The electronic state is 2-A.
 Alpha  occ. eigenvalues --  -19.26413 -19.23017 -10.22400 -10.20541 -10.18419
 Alpha  occ. eigenvalues --   -1.21229  -0.80254  -0.78042  -0.68120  -0.59319
 Alpha  occ. eigenvalues --   -0.49503  -0.49055  -0.47767  -0.46348  -0.44822
 Alpha  occ. eigenvalues --   -0.42030  -0.36608  -0.36358  -0.35617  -0.25975
 Alpha  occ. eigenvalues --   -0.24827
 Alpha virt. eigenvalues --   -0.04943   0.09241   0.13343   0.13687   0.14595
 Alpha virt. eigenvalues --    0.16118   0.17811   0.18878   0.21483   0.22897
 Alpha virt. eigenvalues --    0.26589   0.49239   0.50228   0.53621   0.55203

  Beta  occ. eigenvalues --  -19.24171 -19.20724 -10.23294 -10.20493 -10.18427
  Beta  occ. eigenvalues --   -1.16605  -0.80341  -0.72260  -0.68789  -0.59953
  Beta  occ. eigenvalues --   -0.47588  -0.46689  -0.44500  -0.43285  -0.41037
  Beta  occ. eigenvalues --   -0.39621  -0.36713  -0.36676  -0.35731  -0.20676
  Beta virt. eigenvalues --   -0.07485  -0.06712   0.09110   0.12803   0.13494
  Beta virt. eigenvalues --    0.14429   0.16097   0.17665   0.18756   0.22211
  Beta virt. eigenvalues --    0.24877   0.26329   0.49115   0.50162   0.53601

 Mulliken atomic charges:
              1
     1  C   -0.446970
     2  H    0.170361
     3  H    0.149161
     4  H    0.147487
     5  C   -0.268625
     6  H    0.165033
     7  H    0.157461
     8  C   -0.214182
     9  H    0.171600
    10  H    0.174469
    11  O   -0.091438
    12  O   -0.114358
 Sum of Mulliken atomic charges =   0.00000

 Dipole moment (field-independent basis, Debye):
    X=             -2.5013    Y=              1.1452    Z=              0.2583  Tot=              2.7631
 Quadrupole moment (field-independent basis, Debye-Ang):
   XX=            -33.7713   YY=            -29.1873   ZZ=            -30.1855
   XY=              0.6491   XZ=              0.0911   YZ=              0.0472

  Exact polarizability:  75.798 -13.825  43.468  -0.029   0.996  37.126
 Approx polarizability: 117.105 -34.307  64.180   0.041   3.307  55.110

 ******    1 imaginary frequencies (negative Signs) ******

                     1                      2                      3
                     A                      A                      A
 Frequencies --  -378.8601                31.5197               105.1859
 Red. masses --     8.1925                 5.8268                 1.8199
 Frc consts  --     0.6928                 0.0034                 0.0119
 IR Inten    --    85.7841                 0.3292                 0.1589

                     4                      5                      6
                     A                      A                      A
 Frequencies --   139.2970               247.9076               323.7988
 Red. masses --     4.4006                 1.2277                 3.1472
 Frc consts  --     0.0503                 0.0445                 0.1944
 IR Inten    --     1.2772                 0.0246                 7.9813

                     7                      8                      9
                     A                      A                      A
 Frequencies --   398.7411               609.1371               741.4074
 Red. masses --     2.4549                 1.1446                 1.1610
 Frc consts  --     0.2300                 0.2502                 0.3760
 IR Inten    --     3.0103                 3.1777                 6.9638

                    10                     11                     12
                     A                      A                      A
 Frequencies --   865.4264               899.3854               939.5309
 Red. masses --     1.3359                 1.5749                 1.2917
 Frc consts  --     0.5895                 0.7506                 0.6718
 IR Inten    --     6.1934                 1.7943                 3.4159

                    13                     14                     15
                     A                      A                      A
 Frequencies --  1078.3848              1102.8715              1195.4243
 Red. masses --     1.5842                 2.0240                 1.7981
 Frc consts  --     1.0855                 1.4505                 1.5139
 IR Inten    --    10.3882                 6.1066                 0.0556

                    16                     17                     18
                     A                      A                      A
 Frequencies --  1288.1207              1370.9375              1404.4944
 Red. masses --     1.1872                 2.7055                 2.7248
 Frc consts  --     1.1606                 2.9959                 3.1668
 IR Inten    --     1.0561               262.4748               130.1306

                    19                     20                     21
                     A                      A                      A
 Frequencies --  1440.7890              1486.9399              1498.4062
 Red. masses --     1.2585                 1.0755                 1.1665
 Frc consts  --     1.5393                 1.4010                 1.5431
 IR Inten    --     3.0998                 5.9352                 0.5868

                    22                     23                     24
                     A                      A                      A
 Frequencies --  1528.2828              1537.5066              2967.4934
 Red. masses --     1.0450                 1.0568                 1.0731
 Frc consts  --     1.4381                 1.4718                 5.5677
 IR Inten    --     6.1333                 5.1909                23.1185

                    25                     26                     27
                     A                      A                      A
 Frequencies --  3048.0188              3056.0722              3120.4454
 Red. masses --     1.0831                 1.0389                 1.1015
 Frc consts  --     5.9284                 5.7168                 6.3191
 IR Inten    --     8.4708                28.2769                31.8451

                    28                     29                     30
                     A                      A                      A
 Frequencies --  3136.9405              3162.7327              3260.9811
 Red. masses --     1.1029                 1.0530                 1.1185
 Frc consts  --     6.3942                 6.2059                 7.0075
 IR Inten    --    18.2969                13.3377                 9.4816

 - Thermochemistry -
 -------------------
 Temperature   298.150 Kelvin.  Pressure   1.00000 Atm.
 Atom     1 has atomic number  6 and mass  12.00000

 Molecular mass:    75.04460 amu.
 Principal axes and moments of inertia in atomic units:
                           1         2         3
     Eigenvalues --   192.87946 754.31625 850.08579
           X            0.99969   0.02469   0.00242
           Y           -0.02466   0.99961  -0.01316
           Z           -0.00274   0.01310   0.99991
 This molecule is an asymmetric top.
 Rotational symmetry number  1.
 Rotational temperatures (Kelvin)      0.44906     0.11482     0.10189
 Rotational constants (GHZ):           9.35683     2.39255     2.12301
    1 imaginary frequencies ignored.
 Zero-point vibrational energy     251133.1 (Joules/Mol)
                                   60.02226 (Kcal/Mol)
 Warning -- explicit consideration of   7 degrees of freedom as
           vibrations may cause significant error
 Vibrational temperatures:     45.35   151.34   200.42   356.68   465.87
          (Kelvin)            573.70   876.41  1066.72  1245.15  1294.01
                             1351.77  1551.55  1586.78  1719.95  1853.32
                             1972.47  2020.75  2072.97  2139.37  2155.87
                             2198.86  2212.13  4269.56  4385.41  4397.00
                             4489.62  4513.35  4550.46  4691.82

 Zero-point correction=                           0.095652 (Hartree/Particle)
 Thermal correction to Energy=                    0.102472
 Thermal correction to Enthalpy=                  0.103416
 Thermal correction to Gibbs Free Energy=         0.063565
 Sum of electronic and zero-point Energies=           -268.705687
 Sum of electronic and thermal Energies=              -268.698867
 Sum of electronic and thermal Enthalpies=            -268.697922
 Sum of electronic and thermal Free Energies=         -268.737774

                     E (Thermal)             CV                S
                      KCal/Mol        Cal/Mol-Kelvin    Cal/Mol-Kelvin
 Total                   64.302             21.473             83.874
 Electronic               0.000              0.000              1.377
 Translational            0.889              2.981             38.862
 Rotational               0.889              2.981             26.317
 Vibrational             62.525             15.512             17.317
 Vibration     1          0.594              1.983              5.731
 Vibration     2          0.605              1.945              3.356
 Vibration     3          0.615              1.914              2.814
 Vibration     4          0.662              1.766              1.745
 Vibration     5          0.708              1.628              1.291
 Vibration     6          0.765              1.473              0.967
 Vibration     7          0.968              1.012              0.434

 Normal termination of Gaussian 09 at Wed Apr  1 01:08:12 2015.
