 Gaussian 09, Revision A.01,
 Gaussian 09:  EM64L-G09RevA.01  8-May-2009

 ----------------------------------------
 #p ub3lyp/6-31g(d) opt=modredundant freq
 ----------------------------------------

 ---------------------------------------------------
 C3H7O2_62_b3631gd using cbs-qb3 to calculate energy
 ---------------------------------------------------
 Symbolic Z-matrix:
 Charge =  0 Multiplicity = 2

 SCF Done:  E(UB3LYP) =  -268.794286742     A.U. after   20 cycles
 SCF Done:  E(UB3LYP) =  -268.794291413     A.U. after    9 cycles
 SCF Done:  E(UB3LYP) =  -268.794292189     A.U. after    9 cycles
 SCF Done:  E(UB3LYP) =  -268.794292749     A.U. after    9 cycles
 Optimization completed.
    -- Stationary point found.
 Normal termination of Gaussian 09 at Wed Apr  1 00:23:25 2015.

 --------------------------------------------------------------------
 #P Geom=AllCheck Guess=TCheck SCRF=Check GenChk UB3LYP/6-31G(d) Freq
 --------------------------------------------------------------------

 C3H7O2_62_b3631gd using cbs-qb3 to calculate energy
 ---------------------------------------------------
 Redundant internal coordinates taken from checkpoint file:
 C3H7O2_62_b3631gd_286.chk
 Charge =  0 Multiplicity = 2

                         Standard orientation:
 ---------------------------------------------------------------------
 Center     Atomic      Atomic             Coordinates (Angstroms)
 Number     Number       Type             X           Y           Z
 ---------------------------------------------------------------------
      1          6           0       -1.760115   -1.079073    0.178217
      2          1           0       -0.806275   -1.596877    0.030795
      3          1           0       -2.540378   -1.646719   -0.340557
      4          1           0       -1.989099   -1.098144    1.250560
      5          6           0       -1.683988    0.362584   -0.341617
      6          1           0       -1.489892    0.361798   -1.424161
      7          1           0       -2.679788    0.834038   -0.234384
      8          6           0       -0.660679    1.196537    0.349809
      9          1           0       -0.318982    2.131321   -0.083695
     10          1           0       -0.387209    0.995776    1.381839
     11          8           0        1.738386   -0.097184   -0.522047
     12          8           0        2.616653   -0.260502    0.309691
 ---------------------------------------------------------------------

 SCF Done:  E(UB3LYP) =  -268.794292749     A.U. after    1 cycles

 The electronic state is 2-A.
 Alpha  occ. eigenvalues --  -19.29497 -19.28764 -10.19194 -10.18379 -10.17637
 Alpha  occ. eigenvalues --   -1.27653  -0.81972  -0.77598  -0.66102  -0.57257
 Alpha  occ. eigenvalues --   -0.53863  -0.53525  -0.52723  -0.45068  -0.43651
 Alpha  occ. eigenvalues --   -0.40563  -0.35405  -0.34933  -0.34281  -0.29075
 Alpha  occ. eigenvalues --   -0.28802
 Alpha virt. eigenvalues --   -0.04204   0.10247   0.14477   0.14685   0.15528
 Alpha virt. eigenvalues --    0.17062   0.18628   0.20076   0.21085   0.24360
 Alpha virt. eigenvalues --    0.28147   0.50837   0.51607   0.53789   0.57565

  Beta  occ. eigenvalues --  -19.26642 -19.25959 -10.19686 -10.19112 -10.17658
  Beta  occ. eigenvalues --   -1.22042  -0.78529  -0.73432  -0.67724  -0.58551
  Beta  occ. eigenvalues --   -0.49022  -0.45618  -0.44561  -0.43918  -0.43579
  Beta  occ. eigenvalues --   -0.41048  -0.35970  -0.35471  -0.34576  -0.20075
  Beta virt. eigenvalues --   -0.09786  -0.09745   0.10082   0.13432   0.14362
  Beta virt. eigenvalues --    0.15286   0.17052   0.18421   0.19666   0.23777
  Beta virt. eigenvalues --    0.25219   0.27588   0.50530   0.51286   0.52289

 Mulliken atomic charges:
              1
     1  C   -0.444037
     2  H    0.154909
     3  H    0.143851
     4  H    0.144804
     5  C   -0.261775
     6  H    0.150272
     7  H    0.148865
     8  C   -0.286591
     9  H    0.147752
    10  H    0.148761
    11  O   -0.015361
    12  O   -0.031450
 Sum of Mulliken atomic charges =   0.00000

 Dipole moment (field-independent basis, Debye):
    X=             -0.9921    Y=              0.2609    Z=             -0.0262  Tot=              1.0262
 Quadrupole moment (field-independent basis, Debye-Ang):
   XX=            -31.5462   YY=            -30.2100   ZZ=            -30.2260
   XY=              0.2098   XZ=              0.0412   YZ=             -0.1077

  Exact polarizability:  74.280  -8.798  41.201   2.620  -0.052  38.152
 Approx polarizability:  92.536 -14.659  51.842   7.843  -0.688  55.360

 ******    1 imaginary frequencies (negative Signs) ******

                     1                      2                      3
                     A                      A                      A
 Frequencies --   -46.2659                25.3604                50.5288
 Red. masses --     6.2096                 6.6097                 1.8841
 Frc consts  --     0.0078                 0.0025                 0.0028
 IR Inten    --     8.2491                 0.0518                 0.3995

                     4                      5                      6
                     A                      A                      A
 Frequencies --    56.5932               136.6241               224.9171
 Red. masses --     4.1841                 4.8004                 1.1134
 Frc consts  --     0.0079                 0.0528                 0.0332
 IR Inten    --     0.2271                 3.9128                 0.7262

                     7                      8                      9
                     A                      A                      A
 Frequencies --   258.9060               378.1135               542.0147
 Red. masses --     1.1076                 2.0380                 1.2019
 Frc consts  --     0.0437                 0.1717                 0.2080
 IR Inten    --     0.2342                 0.9232                46.1438

                    10                     11                     12
                     A                      A                      A
 Frequencies --   765.5448               888.9650               933.6240
 Red. masses --     1.1932                 2.0475                 1.2870
 Frc consts  --     0.4120                 0.9533                 0.6610
 IR Inten    --     1.3511                 1.3806                 2.1517

                    13                     14                     15
                     A                      A                      A
 Frequencies --  1064.9061              1092.4226              1187.3240
 Red. masses --     1.3755                 2.3881                 1.8029
 Frc consts  --     0.9190                 1.6791                 1.4975
 IR Inten    --     0.4681                 6.4825                 0.2257

                    16                     17                     18
                     A                      A                      A
 Frequencies --  1283.6447              1380.5613              1438.5228
 Red. masses --     1.1940                 1.4716                 1.2519
 Frc consts  --     1.1592                 1.6526                 1.5263
 IR Inten    --     0.9601                14.0731                 2.0574

                    19                     20                     21
                     A                      A                      A
 Frequencies --  1492.1404              1495.5602              1528.3576
 Red. masses --     1.1626                 1.0815                 1.0419
 Frc consts  --     1.5252                 1.4252                 1.4339
 IR Inten    --     1.1518                 1.9367                 7.7601

                    22                     23                     24
                     A                      A                      A
 Frequencies --  1536.7189              1591.5982              2941.3584
 Red. masses --     1.0571                15.4089                 1.0736
 Frc consts  --     1.4708                22.9979                 5.4727
 IR Inten    --     3.0020               173.8687                33.9391

                    25                     26                     27
                     A                      A                      A
 Frequencies --  3033.9140              3050.0014              3114.5565
 Red. masses --     1.0838                 1.0358                 1.1018
 Frc consts  --     5.8778                 5.6769                 6.2972
 IR Inten    --    18.8625                27.8182                36.8671

                    28                     29                     30
                     A                      A                      A
 Frequencies --  3124.8902              3164.8657              3263.2172
 Red. masses --     1.1031                 1.0514                 1.1183
 Frc consts  --     6.3464                 6.2049                 7.0163
 IR Inten    --    28.7817                14.7631                15.2947

 - Thermochemistry -
 -------------------
 Temperature   298.150 Kelvin.  Pressure   1.00000 Atm.
 Atom     1 has atomic number  6 and mass  12.00000

 Molecular mass:    75.04460 amu.
 Principal axes and moments of inertia in atomic units:
                           1         2         3
     Eigenvalues --   220.29642 959.677571073.85314
           X            0.99983   0.01831   0.00196
           Y           -0.01828   0.99977  -0.01138
           Z           -0.00217   0.01135   0.99993
 This molecule is an asymmetric top.
 Rotational symmetry number  1.
 Rotational temperatures (Kelvin)      0.39317     0.09025     0.08066
 Rotational constants (GHZ):           8.19233     1.88057     1.68062
    1 imaginary frequencies ignored.
 Zero-point vibrational energy     245508.1 (Joules/Mol)
                                   58.67785 (Kcal/Mol)
 Warning -- explicit consideration of   8 degrees of freedom as
           vibrations may cause significant error
 Vibrational temperatures:     36.49    72.70    81.42   196.57   323.61
          (Kelvin)            372.51   544.02   779.84  1101.45  1279.02
                             1343.28  1532.16  1571.75  1708.29  1846.88
                             1986.32  2069.71  2146.85  2151.77  2198.96
                             2210.99  2289.95  4231.95  4365.12  4388.27
                             4481.15  4496.01  4553.53  4695.04

 Zero-point correction=                           0.093509 (Hartree/Particle)
 Thermal correction to Energy=                    0.101387
 Thermal correction to Enthalpy=                  0.102331
 Thermal correction to Gibbs Free Energy=         0.058837
 Sum of electronic and zero-point Energies=           -268.700784
 Sum of electronic and thermal Energies=              -268.692906
 Sum of electronic and thermal Enthalpies=            -268.691962
 Sum of electronic and thermal Free Energies=         -268.735455

                     E (Thermal)             CV                S
                      KCal/Mol        Cal/Mol-Kelvin    Cal/Mol-Kelvin
 Total                   63.621             23.236             91.540
 Electronic               0.000              0.000              1.377
 Translational            0.889              2.981             38.862
 Rotational               0.889              2.981             26.920
 Vibrational             61.844             17.274             24.380
 Vibration     1          0.593              1.985              6.163
 Vibration     2          0.595              1.977              4.797
 Vibration     3          0.596              1.975              4.573
 Vibration     4          0.614              1.917              2.851
 Vibration     5          0.650              1.803              1.919
 Vibration     6          0.668              1.748              1.669
 Vibration     7          0.748              1.517              1.047
 Vibration     8          0.897              1.157              0.561

 Normal termination of Gaussian 09 at Wed Apr  1 00:23:56 2015.
