 Gaussian 09, Revision A.01,
 Gaussian 09:  EM64L-G09RevA.01  8-May-2009

 ----------------------------------------
 #p ub3lyp/6-31g(d) opt=modredundant freq
 ----------------------------------------

 ---------------------------------------------------
 C3H7O2_62_b3631gd using cbs-qb3 to calculate energy
 ---------------------------------------------------
 Symbolic Z-matrix:
 Charge =  0 Multiplicity = 2

 SCF Done:  E(UB3LYP) =  -268.794666454     A.U. after   21 cycles
 SCF Done:  E(UB3LYP) =  -268.794673976     A.U. after   10 cycles
 SCF Done:  E(UB3LYP) =  -268.794675456     A.U. after   10 cycles
 SCF Done:  E(UB3LYP) =  -268.794676373     A.U. after   10 cycles
 Optimization completed.
    -- Stationary point found.
 Normal termination of Gaussian 09 at Wed Apr  1 00:22:11 2015.

 --------------------------------------------------------------------
 #P Geom=AllCheck Guess=TCheck SCRF=Check GenChk UB3LYP/6-31G(d) Freq
 --------------------------------------------------------------------

 C3H7O2_62_b3631gd using cbs-qb3 to calculate energy
 ---------------------------------------------------
 Redundant internal coordinates taken from checkpoint file:
 C3H7O2_62_b3631gd_276.chk
 Charge =  0 Multiplicity = 2

                         Standard orientation:
 ---------------------------------------------------------------------
 Center     Atomic      Atomic             Coordinates (Angstroms)
 Number     Number       Type             X           Y           Z
 ---------------------------------------------------------------------
      1          6           0       -1.763861   -1.059944    0.177983
      2          1           0       -0.825823   -1.605558    0.030259
      3          1           0       -2.560343   -1.602995   -0.342359
      4          1           0       -1.994180   -1.073838    1.250095
      5          6           0       -1.644282    0.379438   -0.339449
      6          1           0       -1.449570    0.375204   -1.421930
      7          1           0       -2.624885    0.881514   -0.231912
      8          6           0       -0.597422    1.182049    0.353188
      9          1           0       -0.243622    2.116901   -0.070379
     10          1           0       -0.324983    0.967283    1.382607
     11          8           0        1.682892   -0.108871   -0.519001
     12          8           0        2.574207   -0.274600    0.300661
 ---------------------------------------------------------------------

 SCF Done:  E(UB3LYP) =  -268.794676373     A.U. after    1 cycles

 The electronic state is 2-A.
 Alpha  occ. eigenvalues --  -19.29184 -19.28282 -10.19309 -10.18657 -10.17703
 Alpha  occ. eigenvalues --   -1.27147  -0.81665  -0.77729  -0.66256  -0.57424
 Alpha  occ. eigenvalues --   -0.53473  -0.53059  -0.52357  -0.45163  -0.43782
 Alpha  occ. eigenvalues --   -0.40710  -0.35489  -0.35051  -0.34411  -0.28773
 Alpha  occ. eigenvalues --   -0.28438
 Alpha virt. eigenvalues --   -0.04292   0.10166   0.14382   0.14594   0.15461
 Alpha virt. eigenvalues --    0.16980   0.18572   0.19943   0.21249   0.24241
 Alpha virt. eigenvalues --    0.28042   0.50663   0.51444   0.53874   0.57472

  Beta  occ. eigenvalues --  -19.26355 -19.25510 -10.19947 -10.19228 -10.17722
  Beta  occ. eigenvalues --   -1.21585  -0.78671  -0.73210  -0.67844  -0.58676
  Beta  occ. eigenvalues --   -0.48741  -0.45697  -0.44638  -0.43669  -0.43256
  Beta  occ. eigenvalues --   -0.41167  -0.36028  -0.35582  -0.34698  -0.20151
  Beta virt. eigenvalues --   -0.09534  -0.09477   0.10007   0.13338   0.14303
  Beta virt. eigenvalues --    0.15222   0.16971   0.18367   0.19553   0.23632
  Beta virt. eigenvalues --    0.25350   0.27499   0.50370   0.51203   0.52693

 Mulliken atomic charges:
              1
     1  C   -0.444525
     2  H    0.156196
     3  H    0.144337
     4  H    0.145033
     5  C   -0.262526
     6  H    0.151689
     7  H    0.149604
     8  C   -0.281953
     9  H    0.149545
    10  H    0.150975
    11  O   -0.020305
    12  O   -0.038071
 Sum of Mulliken atomic charges =   0.00000

 Dipole moment (field-independent basis, Debye):
    X=             -1.1320    Y=              0.3319    Z=             -0.0082  Tot=              1.1797
 Quadrupole moment (field-independent basis, Debye-Ang):
   XX=            -31.7566   YY=            -30.1136   ZZ=            -30.2161
   XY=              0.2220   XZ=              0.0424   YZ=             -0.0969

  Exact polarizability:  76.071  -9.934  41.593   2.212   0.100  38.008
 Approx polarizability:  97.120 -17.313  53.144   7.129  -0.353  55.157

 ******    1 imaginary frequencies (negative Signs) ******

                     1                      2                      3
                     A                      A                      A
 Frequencies --   -56.9755                24.1425                57.9050
 Red. masses --     6.2616                 6.9473                 1.9308
 Frc consts  --     0.0120                 0.0024                 0.0038
 IR Inten    --    11.0014                 0.0224                 0.4073

                     4                      5                      6
                     A                      A                      A
 Frequencies --    64.9174               154.1964               247.5185
 Red. masses --     3.9021                 4.4043                 1.1747
 Frc consts  --     0.0097                 0.0617                 0.0424
 IR Inten    --     0.2906                 4.8263                 1.3680

                     7                      8                      9
                     A                      A                      A
 Frequencies --   264.2508               379.1665               560.8917
 Red. masses --     1.0817                 2.0557                 1.1812
 Frc consts  --     0.0445                 0.1741                 0.2189
 IR Inten    --     0.1706                 0.6021                44.3379

                    10                     11                     12
                     A                      A                      A
 Frequencies --   766.9549               888.5611               934.1687
 Red. masses --     1.1966                 2.0515                 1.2869
 Frc consts  --     0.4147                 0.9543                 0.6617
 IR Inten    --     1.2268                 1.6344                 2.2236

                    13                     14                     15
                     A                      A                      A
 Frequencies --  1065.2687              1092.5468              1187.1838
 Red. masses --     1.3718                 2.3908                 1.8055
 Frc consts  --     0.9172                 1.6814                 1.4993
 IR Inten    --     0.7284                 7.6697                 0.1934

                    16                     17                     18
                     A                      A                      A
 Frequencies --  1283.6133              1380.9613              1438.9814
 Red. masses --     1.1936                 1.4769                 1.2529
 Frc consts  --     1.1587                 1.6595                 1.5285
 IR Inten    --     0.9605                16.9278                 2.2445

                    19                     20                     21
                     A                      A                      A
 Frequencies --  1492.2969              1495.3468              1528.2406
 Red. masses --     1.1611                 1.0831                 1.0425
 Frc consts  --     1.5234                 1.4270                 1.4345
 IR Inten    --     1.3195                 2.2097                 9.0588

                    22                     23                     24
                     A                      A                      A
 Frequencies --  1536.8384              1577.6912              2942.9870
 Red. masses --     1.0572                15.0431                 1.0737
 Frc consts  --     1.4711                22.0614                 5.4790
 IR Inten    --     2.9929               208.6104                32.8343

                    25                     26                     27
                     A                      A                      A
 Frequencies --  3033.5930              3050.6712              3115.1259
 Red. masses --     1.0838                 1.0359                 1.1018
 Frc consts  --     5.8766                 5.6799                 6.2993
 IR Inten    --    18.2172                27.7244                36.2211

                    28                     29                     30
                     A                      A                      A
 Frequencies --  3126.1673              3165.3877              3263.8945
 Red. masses --     1.1031                 1.0515                 1.1184
 Frc consts  --     6.3515                 6.2073                 7.0196
 IR Inten    --    27.5445                14.4804                14.5525

 - Thermochemistry -
 -------------------
 Temperature   298.150 Kelvin.  Pressure   1.00000 Atm.
 Atom     1 has atomic number  6 and mass  12.00000

 Molecular mass:    75.04460 amu.
 Principal axes and moments of inertia in atomic units:
                           1         2         3
     Eigenvalues --   216.96917 926.213181038.04198
           X            0.99981   0.01938   0.00203
           Y           -0.01935   0.99974  -0.01212
           Z           -0.00226   0.01208   0.99992
 This molecule is an asymmetric top.
 Rotational symmetry number  1.
 Rotational temperatures (Kelvin)      0.39920     0.09351     0.08344
 Rotational constants (GHZ):           8.31796     1.94852     1.73860
    1 imaginary frequencies ignored.
 Zero-point vibrational energy     245949.0 (Joules/Mol)
                                   58.78323 (Kcal/Mol)
 Warning -- explicit consideration of   8 degrees of freedom as
           vibrations may cause significant error
 Vibrational temperatures:     34.74    83.31    93.40   221.85   356.12
          (Kelvin)            380.20   545.54   807.00  1103.48  1278.44
                             1344.06  1532.68  1571.93  1708.09  1846.83
                             1986.89  2070.37  2147.08  2151.47  2198.79
                             2211.16  2269.94  4234.30  4364.66  4389.23
                             4481.97  4497.85  4554.28  4696.01

 Zero-point correction=                           0.093677 (Hartree/Particle)
 Thermal correction to Energy=                    0.101441
 Thermal correction to Enthalpy=                  0.102385
 Thermal correction to Gibbs Free Energy=         0.059370
 Sum of electronic and zero-point Energies=           -268.700999
 Sum of electronic and thermal Energies=              -268.693236
 Sum of electronic and thermal Enthalpies=            -268.692291
 Sum of electronic and thermal Free Energies=         -268.735306

                     E (Thermal)             CV                S
                      KCal/Mol        Cal/Mol-Kelvin    Cal/Mol-Kelvin
 Total                   63.655             23.121             90.533
 Electronic               0.000              0.000              1.377
 Translational            0.889              2.981             38.862
 Rotational               0.889              2.981             26.836
 Vibrational             61.878             17.159             23.456
 Vibration     1          0.593              1.985              6.260
 Vibration     2          0.596              1.974              4.527
 Vibration     3          0.597              1.971              4.302
 Vibration     4          0.620              1.898              2.620
 Vibration     5          0.661              1.767              1.748
 Vibration     6          0.671              1.738              1.634
 Vibration     7          0.749              1.515              1.042
 Vibration     8          0.917              1.116              0.522

 Normal termination of Gaussian 09 at Wed Apr  1 00:22:41 2015.
