 Gaussian 09, Revision A.01,
 Gaussian 09:  EM64L-G09RevA.01  8-May-2009

 ----------------------------------------
 #p ub3lyp/6-31g(d) opt=modredundant freq
 ----------------------------------------

 ---------------------------------------------------
 C3H7O2_62_b3631gd using cbs-qb3 to calculate energy
 ---------------------------------------------------
 Symbolic Z-matrix:
 Charge =  0 Multiplicity = 2

 SCF Done:  E(UB3LYP) =  -268.793940385     A.U. after   20 cycles
 SCF Done:  E(UB3LYP) =  -268.793943392     A.U. after    9 cycles
 Optimization completed.
    -- Stationary point found.
 Normal termination of Gaussian 09 at Wed Apr  1 00:24:01 2015.

 --------------------------------------------------------------------
 #P Geom=AllCheck Guess=TCheck SCRF=Check GenChk UB3LYP/6-31G(d) Freq
 --------------------------------------------------------------------

 C3H7O2_62_b3631gd using cbs-qb3 to calculate energy
 ---------------------------------------------------
 Redundant internal coordinates taken from checkpoint file:
 C3H7O2_62_b3631gd_296.chk
 Charge =  0 Multiplicity = 2

                         Standard orientation:
 ---------------------------------------------------------------------
 Center     Atomic      Atomic             Coordinates (Angstroms)
 Number     Number       Type             X           Y           Z
 ---------------------------------------------------------------------
      1          6           0       -1.755175   -1.097342    0.179360
      2          1           0       -0.787132   -1.587122    0.028529
      3          1           0       -2.520930   -1.688758   -0.334522
      4          1           0       -1.978321   -1.120920    1.252861
      5          6           0       -1.723853    0.345166   -0.343315
      6          1           0       -1.533549    0.347837   -1.426411
      7          1           0       -2.733298    0.786176   -0.233163
      8          6           0       -0.723401    1.210313    0.343818
      9          1           0       -0.396888    2.145636   -0.100174
     10          1           0       -0.453339    1.028787    1.380423
     11          8           0        1.792282   -0.089335   -0.524486
     12          8           0        2.659972   -0.243223    0.318646
 ---------------------------------------------------------------------

 SCF Done:  E(UB3LYP) =  -268.793943392     A.U. after    1 cycles

 The electronic state is 2-A.
 Alpha  occ. eigenvalues --  -19.29769 -19.29171 -10.19096 -10.18150 -10.17579
 Alpha  occ. eigenvalues --   -1.28052  -0.82250  -0.77484  -0.65977  -0.57112
 Alpha  occ. eigenvalues --   -0.54183  -0.53908  -0.53031  -0.44994  -0.43535
 Alpha  occ. eigenvalues --   -0.40428  -0.35342  -0.34832  -0.34164  -0.29344
 Alpha  occ. eigenvalues --   -0.29121
 Alpha virt. eigenvalues --   -0.04130   0.10316   0.14549   0.14780   0.15585
 Alpha virt. eigenvalues --    0.17129   0.18681   0.20188   0.20899   0.24449
 Alpha virt. eigenvalues --    0.28231   0.50986   0.51758   0.53755   0.57612

  Beta  occ. eigenvalues --  -19.26895 -19.26340 -10.19471 -10.19012 -10.17603
  Beta  occ. eigenvalues --   -1.22401  -0.78409  -0.73641  -0.67624  -0.58440
  Beta  occ. eigenvalues --   -0.49268  -0.45556  -0.44530  -0.44137  -0.43793
  Beta  occ. eigenvalues --   -0.40930  -0.35928  -0.35378  -0.34464  -0.20012
  Beta virt. eigenvalues --   -0.10016  -0.09980   0.10145   0.13530   0.14410
  Beta virt. eigenvalues --    0.15338   0.17116   0.18472   0.19768   0.23892
  Beta virt. eigenvalues --    0.25056   0.27655   0.50663   0.51293   0.52057

 Mulliken atomic charges:
              1
     1  C   -0.443455
     2  H    0.153885
     3  H    0.143427
     4  H    0.144554
     5  C   -0.261087
     6  H    0.148995
     7  H    0.148194
     8  C   -0.290260
     9  H    0.146246
    10  H    0.146807
    11  O   -0.011444
    12  O   -0.025861
 Sum of Mulliken atomic charges =   0.00000

 Dipole moment (field-independent basis, Debye):
    X=             -0.8738    Y=              0.2034    Z=             -0.0392  Tot=              0.8980
 Quadrupole moment (field-independent basis, Debye-Ang):
   XX=            -31.3633   YY=            -30.2871   ZZ=            -30.2316
   XY=              0.1978   XZ=              0.0357   YZ=             -0.1133

  Exact polarizability:  72.032  -7.574  40.837   3.041  -0.164  38.296
 Approx polarizability:  87.968 -12.106  50.707   8.502  -0.890  55.580

 ******    1 imaginary frequencies (negative Signs) ******

                     1                      2                      3
                     A                      A                      A
 Frequencies --   -45.3966                29.6019                41.8592
 Red. masses --     5.7091                 4.2327                 1.9054
 Frc consts  --     0.0069                 0.0022                 0.0020
 IR Inten    --     6.4975                 0.0248                 0.3368

                     4                      5                      6
                     A                      A                      A
 Frequencies --    49.9523               122.9636               202.9055
 Red. masses --     6.1936                 5.5276                 1.0842
 Frc consts  --     0.0091                 0.0492                 0.0263
 IR Inten    --     0.1107                 2.9228                 0.4875

                     7                      8                      9
                     A                      A                      A
 Frequencies --   256.7772               376.0639               529.3092
 Red. masses --     1.1105                 2.0200                 1.2207
 Frc consts  --     0.0431                 0.1683                 0.2015
 IR Inten    --     0.1549                 1.2101                46.0071

                    10                     11                     12
                     A                      A                      A
 Frequencies --   763.8998               889.1722               932.6494
 Red. masses --     1.1891                 2.0445                 1.2868
 Frc consts  --     0.4088                 0.9524                 0.6595
 IR Inten    --     1.4803                 1.1574                 2.0902

                    13                     14                     15
                     A                      A                      A
 Frequencies --  1064.2907              1092.2868              1187.5646
 Red. masses --     1.3839                 2.3826                 1.8003
 Frc consts  --     0.9236                 1.6749                 1.4959
 IR Inten    --     0.3205                 5.3431                 0.2788

                    16                     17                     18
                     A                      A                      A
 Frequencies --  1283.2265              1379.8988              1437.0268
 Red. masses --     1.1946                 1.4672                 1.2506
 Frc consts  --     1.1590                 1.6460                 1.5216
 IR Inten    --     0.9861                11.6141                 1.9080

                    19                     20                     21
                     A                      A                      A
 Frequencies --  1491.7791              1495.7612              1527.9217
 Red. masses --     1.1648                 1.0794                 1.0418
 Frc consts  --     1.5273                 1.4228                 1.4330
 IR Inten    --     0.9928                 1.7262                 7.0079

                    22                     23                     24
                     A                      A                      A
 Frequencies --  1536.3729              1601.5303              2939.4494
 Red. masses --     1.0571                15.6056                 1.0736
 Frc consts  --     1.4702                23.5831                 5.4654
 IR Inten    --     2.9730               140.5202                34.8790

                    25                     26                     27
                     A                      A                      A
 Frequencies --  3035.0625              3049.4576              3114.1373
 Red. masses --     1.0838                 1.0357                 1.1018
 Frc consts  --     5.8824                 5.6744                 6.2957
 IR Inten    --    19.2357                28.0168                37.5238

                    28                     29                     30
                     A                      A                      A
 Frequencies --  3124.1058              3163.8262              3261.9216
 Red. masses --     1.1031                 1.0514                 1.1182
 Frc consts  --     6.3435                 6.2008                 7.0101
 IR Inten    --    29.8282                15.1270                16.1008

 - Thermochemistry -
 -------------------
 Temperature   298.150 Kelvin.  Pressure   1.00000 Atm.
 Atom     1 has atomic number  6 and mass  12.00000

 Molecular mass:    75.04460 amu.
 Principal axes and moments of inertia in atomic units:
                           1         2         3
     Eigenvalues --   223.43398 993.878361110.42637
           X            0.99985   0.01719   0.00176
           Y           -0.01717   0.99979  -0.01076
           Z           -0.00194   0.01073   0.99994
 This molecule is an asymmetric top.
 Rotational symmetry number  1.
 Rotational temperatures (Kelvin)      0.38765     0.08715     0.07800
 Rotational constants (GHZ):           8.07729     1.81586     1.62527
    1 imaginary frequencies ignored.
 Zero-point vibrational energy     245119.5 (Joules/Mol)
                                   58.58496 (Kcal/Mol)
 Warning -- explicit consideration of   8 degrees of freedom as
           vibrations may cause significant error
 Vibrational temperatures:     42.59    60.23    71.87   176.92   291.94
          (Kelvin)            369.44   541.07   761.56  1099.08  1279.32
                             1341.87  1531.27  1571.56  1708.64  1846.27
                             1985.36  2067.56  2146.33  2152.06  2198.34
                             2210.50  2304.24  4229.21  4366.77  4387.48
                             4480.54  4494.89  4552.03  4693.17

 Zero-point correction=                           0.093361 (Hartree/Particle)
 Thermal correction to Energy=                    0.101334
 Thermal correction to Enthalpy=                  0.102278
 Thermal correction to Gibbs Free Energy=         0.058387
 Sum of electronic and zero-point Energies=           -268.700582
 Sum of electronic and thermal Energies=              -268.692609
 Sum of electronic and thermal Enthalpies=            -268.691665
 Sum of electronic and thermal Free Energies=         -268.735556

                     E (Thermal)             CV                S
                      KCal/Mol        Cal/Mol-Kelvin    Cal/Mol-Kelvin
 Total                   63.588             23.326             92.377
 Electronic               0.000              0.000              1.377
 Translational            0.889              2.981             38.862
 Rotational               0.889              2.981             27.003
 Vibrational             61.811             17.364             25.135
 Vibration     1          0.593              1.984              5.856
 Vibration     2          0.594              1.980              5.169
 Vibration     3          0.595              1.978              4.819
 Vibration     4          0.610              1.930              3.053
 Vibration     5          0.639              1.836              2.107
 Vibration     6          0.666              1.751              1.684
 Vibration     7          0.747              1.521              1.055
 Vibration     8          0.884              1.185              0.589

 Normal termination of Gaussian 09 at Wed Apr  1 00:24:42 2015.
