 Gaussian 09, Revision A.01,
 Gaussian 09:  EM64L-G09RevA.01  8-May-2009

 -----------------------------------------------
 #p ub3lyp/6-31g(d) opt=modredundant freq scf=qc
 -----------------------------------------------

 ---------------------------------------------------
 C3H7O2_62_b3631gd using cbs-qb3 to calculate energy
 ---------------------------------------------------
 Symbolic Z-matrix:
 Charge =  0 Multiplicity = 2

 SCF Done:  E(UB3LYP) =  -268.795097766     a.u. after   22 cycles
 SCF Done:  E(UB3LYP) =  -268.795110226     a.u. after    3 cycles
 SCF Done:  E(UB3LYP) =  -268.795112964     a.u. after    3 cycles
 SCF Done:  E(UB3LYP) =  -268.795114307     a.u. after    3 cycles
 Optimization completed.
    -- Stationary point found.
 Normal termination of Gaussian 09 at Wed Apr  1 01:18:33 2015.

 --------------------------------------------------------------------
 #P Geom=AllCheck Guess=TCheck SCRF=Check GenChk UB3LYP/6-31G(d) Freq
 --------------------------------------------------------------------

 C3H7O2_62_b3631gd using cbs-qb3 to calculate energy
 ---------------------------------------------------
 Redundant internal coordinates taken from checkpoint file:
 C3H7O2_62_b3631gd_266.chk
 Charge =  0 Multiplicity = 2

                         Standard orientation:
 ---------------------------------------------------------------------
 Center     Atomic      Atomic             Coordinates (Angstroms)
 Number     Number       Type             X           Y           Z
 ---------------------------------------------------------------------
      1          6           0       -1.768611   -1.039510    0.177083
      2          1           0       -0.848415   -1.613390    0.025186
      3          1           0       -2.582652   -1.555515   -0.343510
      4          1           0       -1.997118   -1.049980    1.249593
      5          6           0       -1.605589    0.397049   -0.335819
      6          1           0       -1.413585    0.391226   -1.418806
      7          1           0       -2.568916    0.930363   -0.223775
      8          6           0       -0.532956    1.165118    0.355881
      9          1           0       -0.167635    2.100364   -0.056938
     10          1           0       -0.261950    0.936455    1.382624
     11          8           0        1.628267   -0.120465   -0.516511
     12          8           0        2.532135   -0.288969    0.291855
 ---------------------------------------------------------------------

 SCF Done:  E(UB3LYP) =  -268.795114307     a.u. after    1 cycles

 The electronic state is 2-A.
 Alpha  occ. eigenvalues --  -19.28831 -19.27718 -10.19442 -10.18992 -10.17781
 Alpha  occ. eigenvalues --   -1.26547  -0.81324  -0.77879  -0.66440  -0.57621
 Alpha  occ. eigenvalues --   -0.53019  -0.52512  -0.51936  -0.45282  -0.43927
 Alpha  occ. eigenvalues --   -0.40875  -0.35593  -0.35188  -0.34556  -0.28430
 Alpha  occ. eigenvalues --   -0.28023
 Alpha virt. eigenvalues --   -0.04382   0.10074   0.14267   0.14497   0.15379
 Alpha virt. eigenvalues --    0.16888   0.18503   0.19797   0.21404   0.24104
 Alpha virt. eigenvalues --    0.27912   0.50467   0.51269   0.53961   0.57322

  Beta  occ. eigenvalues --  -19.26036 -19.24987 -10.20259 -10.19363 -10.17798
  Beta  occ. eigenvalues --   -1.21047  -0.78839  -0.72975  -0.67981  -0.58821
  Beta  occ. eigenvalues --   -0.48437  -0.45792  -0.44742  -0.43407  -0.42856
  Beta  occ. eigenvalues --   -0.41285  -0.36100  -0.35708  -0.34832  -0.20233
  Beta virt. eigenvalues --   -0.09255  -0.09168   0.09918   0.13241   0.14231
  Beta virt. eigenvalues --    0.15142   0.16879   0.18300   0.19434   0.23466
  Beta virt. eigenvalues --    0.25462   0.27389   0.50192   0.51077   0.53144

 Mulliken atomic charges:
              1
     1  C   -0.445014
     2  H    0.157689
     3  H    0.144888
     4  H    0.145295
     5  C   -0.263240
     6  H    0.153273
     7  H    0.150466
     8  C   -0.276334
     9  H    0.151742
    10  H    0.153605
    11  O   -0.026504
    12  O   -0.045865
 Sum of Mulliken atomic charges =   0.00000

 Dipole moment (field-independent basis, Debye):
    X=             -1.2908    Y=              0.4161    Z=              0.0147  Tot=              1.3563
 Quadrupole moment (field-independent basis, Debye-Ang):
   XX=            -31.9957   YY=            -30.0037   ZZ=            -30.2063
   XY=              0.2456   XZ=              0.0449   YZ=             -0.0842

  Exact polarizability:  77.364 -10.978  41.988   1.809   0.256  37.862
 Approx polarizability: 101.575 -20.116  54.621   6.323   0.038  54.982

 ******    1 imaginary frequencies (negative Signs) ******

                     1                      2                      3
                     A                      A                      A
 Frequencies --   -69.3922                24.1437                62.2373
 Red. masses --     6.4534                 6.6974                 1.8341
 Frc consts  --     0.0183                 0.0023                 0.0042
 IR Inten    --    14.6202                 0.0279                 0.3748

                     4                      5                      6
                     A                      A                      A
 Frequencies --    71.8255               174.0411               254.6146
 Red. masses --     4.4055                 4.0378                 1.1991
 Frc consts  --     0.0134                 0.0721                 0.0458
 IR Inten    --     0.5157                 5.8367                 1.8373

                     7                      8                      9
                     A                      A                      A
 Frequencies --   292.7795               380.7555               585.1772
 Red. masses --     1.0990                 2.0694                 1.1578
 Frc consts  --     0.0555                 0.1768                 0.2336
 IR Inten    --     0.7164                 0.3507                41.2994

                    10                     11                     12
                     A                      A                      A
 Frequencies --   768.2889               888.1793               934.6273
 Red. masses --     1.2012                 2.0581                 1.2856
 Frc consts  --     0.4178                 0.9566                 0.6616
 IR Inten    --     1.1063                 1.8998                 2.2962

                    13                     14                     15
                     A                      A                      A
 Frequencies --  1065.5015              1092.8474              1187.1690
 Red. masses --     1.3719                 2.3866                 1.8079
 Frc consts  --     0.9176                 1.6794                 1.5013
 IR Inten    --     1.1066                 8.8119                 0.1735

                    16                     17                     18
                     A                      A                      A
 Frequencies --  1283.0236              1380.9207              1438.9164
 Red. masses --     1.1943                 1.4838                 1.2531
 Frc consts  --     1.1584                 1.6671                 1.5286
 IR Inten    --     0.9758                20.3173                 2.4812

                    19                     20                     21
                     A                      A                      A
 Frequencies --  1492.3163              1494.6465              1527.9169
 Red. masses --     1.1458                 1.0971                 1.0452
 Frc consts  --     1.5035                 1.4441                 1.4376
 IR Inten    --     1.7766                 2.2863                12.0449

                    22                     23                     24
                     A                      A                      A
 Frequencies --  1536.7897              1560.9344              2944.9298
 Red. masses --     1.0576                14.1446                 1.0737
 Frc consts  --     1.4716                20.3053                 5.4862
 IR Inten    --     2.8650               242.3587                31.6309

                    25                     26                     27
                     A                      A                      A
 Frequencies --  3033.6924              3051.2810              3115.7109
 Red. masses --     1.0839                 1.0359                 1.1017
 Frc consts  --     5.8771                 5.6826                 6.3014
 IR Inten    --    17.4309                27.5909                35.5835

                    28                     29                     30
                     A                      A                      A
 Frequencies --  3127.3463              3165.9188              3264.5781
 Red. masses --     1.1031                 1.0516                 1.1184
 Frc consts  --     6.3563                 6.2099                 7.0228
 IR Inten    --    26.2671                14.2004                13.7582

 - Thermochemistry -
 -------------------
 Temperature   298.150 Kelvin.  Pressure   1.00000 Atm.
 Atom     1 has atomic number  6 and mass  12.00000

 Molecular mass:    75.04460 amu.
 Principal axes and moments of inertia in atomic units:
                           1         2         3
     Eigenvalues --   213.34123 894.395981003.67476
           X            0.99979   0.02043   0.00210
           Y           -0.02040   0.99971  -0.01285
           Z           -0.00236   0.01280   0.99992
 This molecule is an asymmetric top.
 Rotational symmetry number  1.
 Rotational temperatures (Kelvin)      0.40599     0.09684     0.08630
 Rotational constants (GHZ):           8.45941     2.01783     1.79813
    1 imaginary frequencies ignored.
 Zero-point vibrational energy     246437.4 (Joules/Mol)
                                   58.89994 (Kcal/Mol)
 Warning -- explicit consideration of   8 degrees of freedom as
           vibrations may cause significant error
 Vibrational temperatures:     34.74    89.55   103.34   250.41   366.33
          (Kelvin)            421.24   547.82   841.94  1105.39  1277.89
                             1344.72  1533.02  1572.36  1708.07  1845.98
                             1986.83  2070.28  2147.11  2150.46  2198.33
                             2211.09  2245.83  4237.09  4364.80  4390.11
                             4482.81  4499.55  4555.05  4696.99

 Zero-point correction=                           0.093863 (Hartree/Particle)
 Thermal correction to Energy=                    0.101507
 Thermal correction to Enthalpy=                  0.102451
 Thermal correction to Gibbs Free Energy=         0.059879
 Sum of electronic and zero-point Energies=           -268.701251
 Sum of electronic and thermal Energies=              -268.693608
 Sum of electronic and thermal Enthalpies=            -268.692664
 Sum of electronic and thermal Free Energies=         -268.735235

                     E (Thermal)             CV                S
                      KCal/Mol        Cal/Mol-Kelvin    Cal/Mol-Kelvin
 Total                   63.696             22.974             89.599
 Electronic               0.000              0.000              1.377
 Translational            0.889              2.981             38.862
 Rotational               0.889              2.981             26.751
 Vibrational             61.919             17.012             22.608
 Vibration     1          0.593              1.985              6.260
 Vibration     2          0.597              1.972              4.385
 Vibration     3          0.598              1.967              4.103
 Vibration     4          0.627              1.874              2.391
 Vibration     5          0.665              1.755              1.698
 Vibration     6          0.688              1.687              1.458
 Vibration     7          0.750              1.511              1.036
 Vibration     8          0.942              1.063              0.476

 Normal termination of Gaussian 09 at Wed Apr  1 01:19:11 2015.
