 Gaussian 09, Revision A.01,
 Gaussian 09:  EM64L-G09RevA.01  8-May-2009

 ----------------------------------------
 #p ub3lyp/6-31g(d) opt=modredundant freq
 ----------------------------------------

 ---------------------------------------------------
 C3H7O2_62_b3631gd using cbs-qb3 to calculate energy
 ---------------------------------------------------
 Symbolic Z-matrix:
 Charge =  0 Multiplicity = 2

 SCF Done:  E(UB3LYP) =  -268.793363946     A.U. after   20 cycles
 SCF Done:  E(UB3LYP) =  -268.793365355     A.U. after    8 cycles
 Optimization completed.
    -- Stationary point found.
 Normal termination of Gaussian 09 at Wed Apr  1 00:24:40 2015.

 --------------------------------------------------------------------
 #P Geom=AllCheck Guess=TCheck SCRF=Check GenChk UB3LYP/6-31G(d) Freq
 --------------------------------------------------------------------

 C3H7O2_62_b3631gd using cbs-qb3 to calculate energy
 ---------------------------------------------------
 Redundant internal coordinates taken from checkpoint file:
 C3H7O2_62_b3631gd_316.chk
 Charge =  0 Multiplicity = 2

                         Standard orientation:
 ---------------------------------------------------------------------
 Center     Atomic      Atomic             Coordinates (Angstroms)
 Number     Number       Type             X           Y           Z
 ---------------------------------------------------------------------
      1          6           0       -1.679153   -1.150902    0.168936
      2          1           0       -0.682618   -1.540713   -0.064770
      3          1           0       -2.421706   -1.804582   -0.302005
      4          1           0       -1.816928   -1.215561    1.255092
      5          6           0       -1.825611    0.298005   -0.317782
      6          1           0       -1.715674    0.338503   -1.410819
      7          1           0       -2.862839    0.632888   -0.123751
      8          6           0       -0.864315    1.242290    0.320372
      9          1           0       -0.607124    2.185069   -0.152435
     10          1           0       -0.547724    1.096294    1.349506
     11          8           0        1.891567   -0.047172   -0.539157
     12          8           0        2.717069   -0.206361    0.341660
 ---------------------------------------------------------------------

 SCF Done:  E(UB3LYP) =  -268.793365355     A.U. after    1 cycles

 The electronic state is 2-A.
 Alpha  occ. eigenvalues --  -19.30228 -19.29831 -10.18933 -10.17785 -10.17476
 Alpha  occ. eigenvalues --   -1.28747  -0.82710  -0.77288  -0.65763  -0.56884
 Alpha  occ. eigenvalues --   -0.54737  -0.54550  -0.53557  -0.44944  -0.43294
 Alpha  occ. eigenvalues --   -0.40162  -0.35293  -0.34668  -0.33927  -0.29783
 Alpha  occ. eigenvalues --   -0.29639
 Alpha virt. eigenvalues --   -0.03989   0.10457   0.14637   0.14970   0.15674
 Alpha virt. eigenvalues --    0.17279   0.18713   0.20349   0.20736   0.24616
 Alpha virt. eigenvalues --    0.28335   0.51242   0.52050   0.53890   0.57608

  Beta  occ. eigenvalues --  -19.27327 -19.26960 -10.19126 -10.18848 -10.17508
  Beta  occ. eigenvalues --   -1.23042  -0.78212  -0.74002  -0.67450  -0.58255
  Beta  occ. eigenvalues --   -0.49711  -0.45511  -0.44729  -0.44586  -0.43852
  Beta  occ. eigenvalues --   -0.40687  -0.35915  -0.35219  -0.34232  -0.19896
  Beta virt. eigenvalues --   -0.10403  -0.10362   0.10267   0.13719   0.14454
  Beta virt. eigenvalues --    0.15445   0.17251   0.18516   0.20031   0.24137
  Beta virt. eigenvalues --    0.24796   0.27722   0.50851   0.51252   0.52163

 Mulliken atomic charges:
              1
     1  C   -0.442377
     2  H    0.152369
     3  H    0.142548
     4  H    0.144085
     5  C   -0.259761
     6  H    0.146289
     7  H    0.147215
     8  C   -0.295910
     9  H    0.144281
    10  H    0.143763
    11  O   -0.005454
    12  O   -0.017048
 Sum of Mulliken atomic charges =   0.00000

 Dipole moment (field-independent basis, Debye):
    X=             -0.6659    Y=              0.1045    Z=             -0.0477  Tot=              0.6757
 Quadrupole moment (field-independent basis, Debye-Ang):
   XX=            -31.0210   YY=            -30.4206   ZZ=            -30.2744
   XY=              0.2090   XZ=              0.0563   YZ=             -0.1330

  Exact polarizability:  66.066  -5.106  40.393   3.892  -0.522  38.438
 Approx polarizability:  78.773  -7.741  49.212   9.590  -1.567  56.101

 ******    1 imaginary frequencies (negative Signs) ******

                     1                      2                      3
                     A                      A                      A
 Frequencies --   -43.9605                28.3810                33.7953
 Red. masses --     4.9791                 5.1828                 1.8816
 Frc consts  --     0.0057                 0.0025                 0.0013
 IR Inten    --     4.1186                 0.0070                 0.0933

                     4                      5                      6
                     A                      A                      A
 Frequencies --    47.9674                95.5980               171.3865
 Red. masses --     5.4938                 6.3262                 1.0534
 Frc consts  --     0.0074                 0.0341                 0.0182
 IR Inten    --     0.0242                 1.3209                 0.3527

                     7                      8                      9
                     A                      A                      A
 Frequencies --   256.5859               370.8571               509.0379
 Red. masses --     1.1054                 1.9689                 1.2674
 Frc consts  --     0.0429                 0.1595                 0.1935
 IR Inten    --     0.0279                 1.8837                46.5442

                    10                     11                     12
                     A                      A                      A
 Frequencies --   762.0678               890.3277               930.3477
 Red. masses --     1.1809                 2.0072                 1.2924
 Frc consts  --     0.4041                 0.9374                 0.6591
 IR Inten    --     1.7274                 0.7872                 2.0125

                    13                     14                     15
                     A                      A                      A
 Frequencies --  1064.5474              1091.5125              1188.4306
 Red. masses --     1.4174                 2.3629                 1.7934
 Frc consts  --     0.9464                 1.6586                 1.4924
 IR Inten    --     0.0965                 3.2841                 0.5439

                    16                     17                     18
                     A                      A                      A
 Frequencies --  1284.0339              1379.4589              1436.3852
 Red. masses --     1.1916                 1.4532                 1.2465
 Frc consts  --     1.1575                 1.6293                 1.5152
 IR Inten    --     0.9259                 7.4193                 1.6126

                    19                     20                     21
                     A                      A                      A
 Frequencies --  1490.1593              1498.1938              1527.7104
 Red. masses --     1.1710                 1.0754                 1.0414
 Frc consts  --     1.5320                 1.4222                 1.4321
 IR Inten    --     0.6699                 1.4021                 6.0921

                    22                     23                     24
                     A                      A                      A
 Frequencies --  1536.2864              1620.5114              2938.3895
 Red. masses --     1.0572                15.8128                 1.0734
 Frc consts  --     1.4701                24.4660                 5.4607
 IR Inten    --     2.7936                82.9816                36.4858

                    25                     26                     27
                     A                      A                      A
 Frequencies --  3039.7293              3048.9953              3113.3795
 Red. masses --     1.0838                 1.0361                 1.1018
 Frc consts  --     5.9000                 5.6748                 6.2923
 IR Inten    --    18.9709                29.3642                39.4090

                    28                     29                     30
                     A                      A                      A
 Frequencies --  3124.2687              3162.4548              3260.4959
 Red. masses --     1.1031                 1.0514                 1.1181
 Frc consts  --     6.3438                 6.1953                 7.0033
 IR Inten    --    31.1736                15.7241                17.3335

 - Thermochemistry -
 -------------------
 Temperature   298.150 Kelvin.  Pressure   1.00000 Atm.
 Atom     1 has atomic number  6 and mass  12.00000

 Molecular mass:    75.04460 amu.
 Principal axes and moments of inertia in atomic units:
                           1         2         3
     Eigenvalues --   231.099661046.819341171.79240
           X            0.99989   0.01457   0.00189
           Y           -0.01456   0.99986  -0.00824
           Z           -0.00201   0.00821   0.99996
 This molecule is an asymmetric top.
 Rotational symmetry number  1.
 Rotational temperatures (Kelvin)      0.37479     0.08274     0.07392
 Rotational constants (GHZ):           7.80936     1.72402     1.54015
    1 imaginary frequencies ignored.
 Zero-point vibrational energy     244644.1 (Joules/Mol)
                                   58.47134 (Kcal/Mol)
 Warning -- explicit consideration of   8 degrees of freedom as
           vibrations may cause significant error
 Vibrational temperatures:     40.83    48.62    69.01   137.54   246.59
          (Kelvin)            369.17   533.58   732.39  1096.44  1280.98
                             1338.56  1531.64  1570.44  1709.88  1847.44
                             1984.73  2066.64  2144.00  2155.56  2198.03
                             2210.37  2331.55  4227.68  4373.49  4386.82
                             4479.45  4495.12  4550.06  4691.12

 Zero-point correction=                           0.093180 (Hartree/Particle)
 Thermal correction to Energy=                    0.101300
 Thermal correction to Enthalpy=                  0.102244
 Thermal correction to Gibbs Free Energy=         0.057592
 Sum of electronic and zero-point Energies=           -268.700185
 Sum of electronic and thermal Energies=              -268.692065
 Sum of electronic and thermal Enthalpies=            -268.691121
 Sum of electronic and thermal Free Energies=         -268.735773

                     E (Thermal)             CV                S
                      KCal/Mol        Cal/Mol-Kelvin    Cal/Mol-Kelvin
 Total                   63.567             23.450             93.978
 Electronic               0.000              0.000              1.377
 Translational            0.889              2.981             38.862
 Rotational               0.889              2.981             27.141
 Vibrational             61.789             17.489             26.597
 Vibration     1          0.593              1.984              5.939
 Vibration     2          0.594              1.983              5.593
 Vibration     3          0.595              1.978              4.899
 Vibration     4          0.603              1.952              3.542
 Vibration     5          0.626              1.878              2.420
 Vibration     6          0.666              1.752              1.685
 Vibration     7          0.743              1.532              1.076
 Vibration     8          0.864              1.230              0.636

 Normal termination of Gaussian 09 at Wed Apr  1 00:25:11 2015.
