 Gaussian 09, Revision A.01,
 Gaussian 09:  EM64L-G09RevA.01  8-May-2009

 -----------------------------------------------
 #p ub3lyp/6-31g(d) opt=modredundant freq scf=qc
 -----------------------------------------------

 ---------------------------------------------------
 C3H7O2_62_b3631gd using cbs-qb3 to calculate energy
 ---------------------------------------------------
 Symbolic Z-matrix:
 Charge =  0 Multiplicity = 2

 SCF Done:  E(UB3LYP) =  -268.796253547     a.u. after   23 cycles
 SCF Done:  E(UB3LYP) =  -268.796290249     a.u. after    3 cycles
 SCF Done:  E(UB3LYP) =  -268.796298980     a.u. after    3 cycles
 SCF Done:  E(UB3LYP) =  -268.796301418     a.u. after    3 cycles
 Optimization completed.
    -- Stationary point found.
 Normal termination of Gaussian 09 at Wed Apr  1 01:04:11 2015.

 --------------------------------------------------------------------
 #P Geom=AllCheck Guess=TCheck SCRF=Check GenChk UB3LYP/6-31G(d) Freq
 --------------------------------------------------------------------

 C3H7O2_62_b3631gd using cbs-qb3 to calculate energy
 ---------------------------------------------------
 Redundant internal coordinates taken from checkpoint file:
 C3H7O2_62_b3631gd_246.chk
 Charge =  0 Multiplicity = 2

                         Standard orientation:
 ---------------------------------------------------------------------
 Center     Atomic      Atomic             Coordinates (Angstroms)
 Number     Number       Type             X           Y           Z
 ---------------------------------------------------------------------
      1          6           0       -1.790971   -0.989367    0.176652
      2          1           0       -0.916536   -1.625785    0.006279
      3          1           0       -2.646733   -1.440118   -0.337315
      4          1           0       -2.005339   -0.993765    1.252056
      5          6           0       -1.532195    0.436106   -0.326143
      6          1           0       -1.355278    0.429076   -1.411628
      7          1           0       -2.449759    1.040189   -0.194030
      8          6           0       -0.397964    1.119405    0.354821
      9          1           0       -0.007064    2.054183   -0.035300
     10          1           0       -0.136292    0.867141    1.378415
     11          8           0        1.520966   -0.158081   -0.508732
     12          8           0        2.459506   -0.307892    0.272425
 ---------------------------------------------------------------------

 SCF Done:  E(UB3LYP) =  -268.796301418     a.u. after    1 cycles

 The electronic state is 2-A.
 Alpha  occ. eigenvalues --  -19.27993 -19.26279 -10.19902 -10.19776 -10.17980
 Alpha  occ. eigenvalues --   -1.24997  -0.80569  -0.78224  -0.66925  -0.58129
 Alpha  occ. eigenvalues --   -0.51886  -0.51139  -0.50887  -0.45609  -0.44274
 Alpha  occ. eigenvalues --   -0.41271  -0.35878  -0.35542  -0.34909  -0.27603
 Alpha  occ. eigenvalues --   -0.26997
 Alpha virt. eigenvalues --   -0.04585   0.09835   0.13964   0.14267   0.15154
 Alpha virt. eigenvalues --    0.16653   0.18322   0.19461   0.21669   0.23749
 Alpha virt. eigenvalues --    0.27551   0.50006   0.50895   0.54000   0.56800

  Beta  occ. eigenvalues --  -19.25310 -19.23661 -10.21096 -10.19706 -10.17994
  Beta  occ. eigenvalues --   -1.19688  -0.79286  -0.72504  -0.68301  -0.59183
  Beta  occ. eigenvalues --   -0.47825  -0.46047  -0.44931  -0.42967  -0.41873
  Beta  occ. eigenvalues --   -0.41401  -0.36287  -0.36025  -0.35151  -0.20409
  Beta virt. eigenvalues --   -0.08609  -0.08395   0.09681   0.13038   0.14035
  Beta virt. eigenvalues --    0.14925   0.16636   0.18123   0.19169   0.23067
  Beta virt. eigenvalues --    0.25584   0.27085   0.49773   0.50764   0.53729

 Mulliken atomic charges:
              1
     1  C   -0.445997
     2  H    0.161522
     3  H    0.146272
     4  H    0.145927
     5  C   -0.264650
     6  H    0.157117
     7  H    0.152652
     8  C   -0.260902
     9  H    0.157702
    10  H    0.160290
    11  O   -0.043924
    12  O   -0.066009
 Sum of Mulliken atomic charges =   0.00000

 Dipole moment (field-independent basis, Debye):
    X=             -1.6804    Y=              0.6354    Z=              0.0783  Tot=              1.7982
 Quadrupole moment (field-independent basis, Debye-Ang):
   XX=            -32.5960   YY=            -29.7412   ZZ=            -30.1784
   XY=              0.3312   XZ=              0.0517   YZ=             -0.0628

  Exact polarizability:  78.686 -12.616  42.655   1.069   0.633  37.513
 Approx polarizability: 110.076 -25.737  57.913   4.456   1.248  54.593

 ******    1 imaginary frequencies (negative Signs) ******

                     1                      2                      3
                     A                      A                      A
 Frequencies --  -136.7397                19.1169                69.7727
 Red. masses --     6.7640                 5.9105                 1.8707
 Frc consts  --     0.0745                 0.0013                 0.0054
 IR Inten    --    29.8434                 0.0733                 0.1261

                     4                      5                      6
                     A                      A                      A
 Frequencies --    87.4339               217.4096               261.2025
 Red. masses --     4.6010                 2.5864                 1.4357
 Frc consts  --     0.0207                 0.0720                 0.0577
 IR Inten    --     0.7310                 5.0928                 5.6008

                     7                      8                      9
                     A                      A                      A
 Frequencies --   374.3695               397.0667               652.2549
 Red. masses --     1.5603                 1.3796                 1.1107
 Frc consts  --     0.1288                 0.1282                 0.2784
 IR Inten    --     0.9944                 1.0006                30.0160

                    10                     11                     12
                     A                      A                      A
 Frequencies --   774.9103               888.3417               935.9225
 Red. masses --     1.2148                 2.0654                 1.2828
 Frc consts  --     0.4298                 0.9603                 0.6620
 IR Inten    --     1.3005                 2.4355                 2.4667

                    13                     14                     15
                     A                      A                      A
 Frequencies --  1067.0657              1094.1340              1188.5258
 Red. masses --     1.3885                 2.3510                 1.8096
 Frc consts  --     0.9315                 1.6582                 1.5061
 IR Inten    --     2.5192                10.3773                 0.1455

                    16                     17                     18
                     A                      A                      A
 Frequencies --  1282.2573              1380.9548              1438.7137
 Red. masses --     1.1954                 1.4985                 1.2568
 Frc consts  --     1.1580                 1.6837                 1.5328
 IR Inten    --     1.0214                30.9960                 3.2036

                    19                     20                     21
                     A                      A                      A
 Frequencies --  1490.2647              1494.6793              1515.1185
 Red. masses --     1.0826                 1.1682                 8.7595
 Frc consts  --     1.4166                 1.5377                11.8474
 IR Inten    --     2.8763                 4.8116               313.1514

                    22                     23                     24
                     A                      A                      A
 Frequencies --  1528.1937              1536.9595              2949.9922
 Red. masses --     1.0817                 1.0585                 1.0736
 Frc consts  --     1.4884                 1.4732                 5.5046
 IR Inten    --     3.8078                 5.6917                28.8410

                    25                     26                     27
                     A                      A                      A
 Frequencies --  3035.8074              3052.6418              3117.1584
 Red. masses --     1.0841                 1.0361                 1.1017
 Frc consts  --     5.8865                 5.6888                 6.3070
 IR Inten    --    15.2544                27.3157                34.2172

                    28                     29                     30
                     A                      A                      A
 Frequencies --  3129.8971              3166.4139              3265.1898
 Red. masses --     1.1030                 1.0519                 1.1185
 Frc consts  --     6.3665                 6.2138                 7.0256
 IR Inten    --    23.6440                13.6827                12.1159

 - Thermochemistry -
 -------------------
 Temperature   298.150 Kelvin.  Pressure   1.00000 Atm.
 Atom     1 has atomic number  6 and mass  12.00000

 Molecular mass:    75.04460 amu.
 Principal axes and moments of inertia in atomic units:
                           1         2         3
     Eigenvalues --   203.78753 840.04308 942.89879
           X            0.99975   0.02224   0.00208
           Y           -0.02221   0.99964  -0.01519
           Z           -0.00242   0.01514   0.99988
 This molecule is an asymmetric top.
 Rotational symmetry number  1.
 Rotational temperatures (Kelvin)      0.42502     0.10311     0.09186
 Rotational constants (GHZ):           8.85599     2.14839     1.91403
    1 imaginary frequencies ignored.
 Zero-point vibrational energy     247697.4 (Joules/Mol)
                                   59.20110 (Kcal/Mol)
 Warning -- explicit consideration of   7 degrees of freedom as
           vibrations may cause significant error
 Vibrational temperatures:     27.50   100.39   125.80   312.80   375.81
          (Kelvin)            538.63   571.29   938.45  1114.92  1278.12
                             1346.58  1535.27  1574.21  1710.02  1844.88
                             1986.88  2069.99  2144.16  2150.51  2179.91
                             2198.73  2211.34  4244.38  4367.84  4392.07
                             4484.89  4503.22  4555.76  4697.87

 Zero-point correction=                           0.094343 (Hartree/Particle)
 Thermal correction to Energy=                    0.101726
 Thermal correction to Enthalpy=                  0.102670
 Thermal correction to Gibbs Free Energy=         0.060738
 Sum of electronic and zero-point Energies=           -268.701958
 Sum of electronic and thermal Energies=              -268.694575
 Sum of electronic and thermal Enthalpies=            -268.693631
 Sum of electronic and thermal Free Energies=         -268.735563

                     E (Thermal)             CV                S
                      KCal/Mol        Cal/Mol-Kelvin    Cal/Mol-Kelvin
 Total                   63.834             22.548             88.254
 Electronic               0.000              0.000              1.377
 Translational            0.889              2.981             38.862
 Rotational               0.889              2.981             26.582
 Vibrational             62.057             16.586             21.432
 Vibration     1          0.593              1.986              6.724
 Vibration     2          0.598              1.969              4.160
 Vibration     3          0.601              1.958              3.717
 Vibration     4          0.646              1.815              1.981
 Vibration     5          0.669              1.744              1.654
 Vibration     6          0.745              1.525              1.062
 Vibration     7          0.764              1.476              0.973

 Normal termination of Gaussian 09 at Wed Apr  1 01:04:29 2015.
