 Gaussian 09, Revision A.01,
 Gaussian 09:  EM64L-G09RevA.01  8-May-2009

 ---------------------------
 #p opt freq ub3lyp/6-31g(d)
 ---------------------------

 ------------------------------------------------------
 RO2_3_2_opt_ub3631gd using cbs-qb3 to calculate energy
 ------------------------------------------------------
 Symbolic Z-matrix:
 Charge =  0 Multiplicity = 3

 SCF Done:  E(UB3LYP) =  -150.315301892     A.U. after   10 cycles
 SCF Done:  E(UB3LYP) =  -150.319856755     A.U. after    9 cycles
 SCF Done:  E(UB3LYP) =  -150.320042076     A.U. after    7 cycles
 Optimization completed.
    -- Stationary point found.
 Normal termination of Gaussian 09 at Wed Apr  1 00:09:07 2015.

 --------------------------------------------------------------------
 #P Geom=AllCheck Guess=TCheck SCRF=Check GenChk UB3LYP/6-31G(d) Freq
 --------------------------------------------------------------------

 RO2_3_2_opt_ub3631gd using cbs-qb3 to calculate energy
 ------------------------------------------------------
 Redundant internal coordinates taken from checkpoint file:
 O2_31_b3631gd.chk
 Charge =  0 Multiplicity = 3

                         Standard orientation:
 ---------------------------------------------------------------------
 Center     Atomic      Atomic             Coordinates (Angstroms)
 Number     Number       Type             X           Y           Z
 ---------------------------------------------------------------------
      1          8           0        0.000000    0.000000    0.607296
      2          8           0        0.000000    0.000000   -0.607296
 ---------------------------------------------------------------------

 SCF Done:  E(UB3LYP) =  -150.320042076     A.U. after    1 cycles

 The electronic state is 3-SGG.
 Alpha  occ. eigenvalues --  -19.31227 -19.31210  -1.30178  -0.83800  -0.55938
 Alpha  occ. eigenvalues --   -0.55938  -0.54741  -0.30817  -0.30817
 Alpha virt. eigenvalues --    0.19636   0.66955   0.70863   0.77677   0.77677
 Alpha virt. eigenvalues --    0.85639   0.89570   0.89570   1.27388   1.48635
 Alpha virt. eigenvalues --    1.48635   1.51349   1.51350   1.89292   1.89293

  Beta  occ. eigenvalues --  -19.28295 -19.28265  -1.24387  -0.74933  -0.50776
  Beta  occ. eigenvalues --   -0.45693  -0.45693
  Beta virt. eigenvalues --   -0.11278  -0.11278   0.24060   0.68830   0.72644
  Beta virt. eigenvalues --    0.83244   0.83244   0.86824   0.95366   0.95366
  Beta virt. eigenvalues --    1.30133   1.51966   1.51966   1.56923   1.56924

 Mulliken atomic charges:
              1
     1  O    0.000000
     2  O    0.000000
 Sum of Mulliken atomic charges =   0.00000

 Dipole moment (field-independent basis, Debye):
    X=              0.0000    Y=              0.0000    Z=              0.0000  Tot=              0.0000
 Quadrupole moment (field-independent basis, Debye-Ang):
   XX=             -9.8035   YY=             -9.8035   ZZ=            -10.2621
   XY=              0.0000   XZ=              0.0000   YZ=              0.0000

  Exact polarizability:   4.226   0.000   4.226   0.000   0.000  12.423
 Approx polarizability:   5.308   0.000   5.308   0.000   0.000  24.260

                     1
                    SGG
 Frequencies --  1658.8545
 Red. masses --    15.9949
 Frc consts  --    25.9328
 IR Inten    --     0.0000

 - Thermochemistry -
 -------------------
 Temperature   298.150 Kelvin.  Pressure   1.00000 Atm.
 Atom     1 has atomic number  8 and mass  15.99491

 Molecular mass:    31.98983 amu.
 Principal axes and moments of inertia in atomic units:
                           1         2         3
     Eigenvalues --     0.00000  42.13191  42.13191
           X            0.00000   1.00000   0.00000
           Y            0.00000   0.00000   1.00000
           Z            1.00000   0.00000   0.00000
 This molecule is a prolate symmetric top.
 Rotational symmetry number  2.
 Rotational temperature (Kelvin)      2.05578
 Rotational constant (GHZ):          42.835496
 Zero-point vibrational energy       9922.2 (Joules/Mol)
                                    2.37145 (Kcal/Mol)
 Vibrational temperatures:   2386.72
          (Kelvin)

 Zero-point correction=                           0.003779 (Hartree/Particle)
 Thermal correction to Energy=                    0.006142
 Thermal correction to Enthalpy=                  0.007086
 Thermal correction to Gibbs Free Energy=        -0.016200
 Sum of electronic and zero-point Energies=           -150.316263
 Sum of electronic and thermal Energies=              -150.313900
 Sum of electronic and thermal Enthalpies=            -150.312956
 Sum of electronic and thermal Free Energies=         -150.336242

                     E (Thermal)             CV                S
                      KCal/Mol        Cal/Mol-Kelvin    Cal/Mol-Kelvin
 Total                    3.854              5.011             49.010
 Electronic               0.000              0.000              2.183
 Translational            0.889              2.981             36.321
 Rotational               0.592              1.987             10.500
 Vibrational              2.373              0.043              0.006

 Optimization completed.
    -- Stationary point found.
 Normal termination of Gaussian 09 at Wed Apr  1 00:09:17 2015.
