 Gaussian 09, Revision D.01,
 Gaussian 09:  ES64L-G09RevD.01 24-Apr-2013

 ----------------------------------------------------------------------
 #p B3LYP/6-31G(d) opt=tight int=ultrafine freq EmpiricalDispersion=GD3
 BJ
 ----------------------------------------------------------------------

 -------------------
 Title Card Required
 -------------------
 Symbolic Z-matrix:
 Charge =  0 Multiplicity = 3

 SCF Done:  E(UB3LYP) =  -150.320495687     A.U. after   10 cycles
 SCF Done:  E(UB3LYP) =  -150.320495691     A.U. after    4 cycles
 SCF Done:  E(UB3LYP) =  -150.320495692     A.U. after    4 cycles
 Optimization completed.
    -- Stationary point found.
 Normal termination of Gaussian 09 at Wed Apr 13 14:31:29 2016.

 --------------------------------------------------------------------
 #P Geom=AllCheck Guess=TCheck SCRF=Check GenChk UB3LYP/6-31G(d) Freq
 --------------------------------------------------------------------

 Structure from the checkpoint file:  "/WORK/tsinghua_xqyou_1/scratch/Gau-14977.chk"
 -------------------
 Title Card Required
 -------------------
 Charge =  0 Multiplicity = 3

                         Standard orientation:
 ---------------------------------------------------------------------
 Center     Atomic      Atomic             Coordinates (Angstroms)
 Number     Number       Type             X           Y           Z
 ---------------------------------------------------------------------
      1          8           0        0.000000    0.000000    0.607268
      2          8           0        0.000000    0.000000   -0.607268
 ---------------------------------------------------------------------

 SCF Done:  E(UB3LYP) =  -150.320495692     A.U. after    1 cycles

 The electronic state is 3-SGG.
 Alpha  occ. eigenvalues --  -19.31226 -19.31209  -1.30183  -0.83798  -0.55940
 Alpha  occ. eigenvalues --   -0.55940  -0.54742  -0.30815  -0.30815
 Alpha virt. eigenvalues --    0.19643   0.66954   0.70864   0.77676   0.77676
 Alpha virt. eigenvalues --    0.85638   0.89571   0.89571   1.27389   1.48638
 Alpha virt. eigenvalues --    1.48638   1.51348   1.51348   1.89295   1.89295

  Beta  occ. eigenvalues --  -19.28294 -19.28265  -1.24391  -0.74931  -0.50776
  Beta  occ. eigenvalues --   -0.45695  -0.45695
  Beta virt. eigenvalues --   -0.11276  -0.11276   0.24067   0.68830   0.72645
  Beta virt. eigenvalues --    0.83244   0.83244   0.86822   0.95366   0.95366
  Beta virt. eigenvalues --    1.30136   1.51968   1.51968   1.56921   1.56921

 Mulliken charges and spin densities:
               1          2
     1  O    0.000000   1.000000
     2  O    0.000000   1.000000
 Sum of Mulliken charges =   0.00000   2.00000

 Dipole moment (field-independent basis, Debye):
    X=              0.0000    Y=              0.0000    Z=              0.0000  Tot=              0.0000
 Quadrupole moment (field-independent basis, Debye-Ang):
   XX=             -9.8034   YY=             -9.8034   ZZ=            -10.2622
   XY=              0.0000   XZ=              0.0000   YZ=              0.0000

  Exact polarizability:   4.226   0.000   4.226   0.000   0.000  12.423
 Approx polarizability:   5.308   0.000   5.308   0.000   0.000  24.256

                      1
                     SGG
 Frequencies --   1658.9624
 Red. masses --     15.9949
 Frc consts  --     25.9361
 IR Inten    --      0.0000

 - Thermochemistry -
 -------------------
 Temperature   298.150 Kelvin.  Pressure   1.00000 Atm.
 Atom     1 has atomic number  8 and mass  15.99491

 Molecular mass:    31.98983 amu.
 Principal axes and moments of inertia in atomic units:
                           1         2         3
     Eigenvalues --     0.00000  42.12796  42.12796
           X            0.00000   1.00000   0.00000
           Y            0.00000   0.00000   1.00000
           Z            1.00000   0.00000   0.00000
 This molecule is a prolate symmetric top.
 Rotational symmetry number  2.
 Rotational temperature (Kelvin)      2.05597
 Rotational constant (GHZ):          42.839509
 Zero-point vibrational energy       9922.8 (Joules/Mol)
                                    2.37161 (Kcal/Mol)
 Vibrational temperatures:   2386.87
          (Kelvin)

 Zero-point correction=                           0.003779 (Hartree/Particle)
 Thermal correction to Energy=                    0.006142
 Thermal correction to Enthalpy=                  0.007087
 Thermal correction to Gibbs Free Energy=        -0.016199
 Sum of electronic and zero-point Energies=           -150.316716
 Sum of electronic and thermal Energies=              -150.314353
 Sum of electronic and thermal Enthalpies=            -150.313409
 Sum of electronic and thermal Free Energies=         -150.336695

                     E (Thermal)             CV                S
                      KCal/Mol        Cal/Mol-Kelvin    Cal/Mol-Kelvin
 Total                    3.854              5.011             49.010
 Electronic               0.000              0.000              2.183
 Translational            0.889              2.981             36.321
 Rotational               0.592              1.987             10.500
 Vibrational              2.373              0.043              0.006

 Optimization completed.
    -- Stationary point found.
 Normal termination of Gaussian 09 at Wed Apr 13 14:31:46 2016.
