 Gaussian 09, Revision C.01,

 --------------------------------------------------
 #p UB3LYP/6-311++G(d,p) guess=mix stable=(opt,xqc)
 --------------------------------------------------

 (Enter /usr/caen/gaussian-09revc/g09/l101.exe)
 --------------------------------------------
 C9H18OOH_1_26_g using cbs-qb3 to cal. energy
 --------------------------------------------
 Charge =  0 Multiplicity = 2

 SCF Done:  E(UB3LYP) =  -504.854656009     A.U. after   21 cycles
 Normal termination of Gaussian 09 at Fri Feb  7 22:48:30 2014.
 Gaussian 09:  EM64L-G09RevC.01 23-Sep-2011

 ------------------------------------------------
 #p cbs-qb3 opt=calcfc freq geom=check guess=read
 ------------------------------------------------

 ---------------------
 optimization and freq
 ---------------------
 Structure from the checkpoint file:  C9H18OOH_1_26_g.chk
 Charge =  0 Multiplicity = 2

 SCF Done:  E(UB3LYP) =  -504.846040874     A.U. after   10 cycles
 SCF Done:  E(UB3LYP) =  -504.846130549     A.U. after   12 cycles
 SCF Done:  E(UB3LYP) =  -504.846135584     A.U. after   10 cycles
 SCF Done:  E(UB3LYP) =  -504.846138906     A.U. after   12 cycles
 SCF Done:  E(UB3LYP) =  -504.846129579     A.U. after   12 cycles
 SCF Done:  E(UB3LYP) =  -504.846136640     A.U. after   12 cycles
 SCF Done:  E(UB3LYP) =  -504.846138269     A.U. after   10 cycles
 SCF Done:  E(UB3LYP) =  -504.846045320     A.U. after   12 cycles
 SCF Done:  E(UB3LYP) =  -504.846140581     A.U. after   12 cycles
 SCF Done:  E(UB3LYP) =  -504.846118803     A.U. after   12 cycles
 SCF Done:  E(UB3LYP) =  -504.846141708     A.U. after   12 cycles
 SCF Done:  E(UB3LYP) =  -504.846141695     A.U. after    9 cycles
 SCF Done:  E(UB3LYP) =  -504.846141612     A.U. after    7 cycles
 Optimization completed.
    -- Stationary point found.
 Normal termination of Gaussian 09 at Fri Feb  7 23:29:48 2014.

 ---------------------------------------------------------
 #P Geom=AllCheck Guess=TCheck SCRF=Check B3LYP/CBSB7 Freq
 ---------------------------------------------------------

 Structure from the checkpoint file:  C9H18OOH_1_26_g.chk
 ---------------------
 optimization and freq
 ---------------------
 Charge =  0 Multiplicity = 2

 SCF Done:  E(UB3LYP) =  -504.846141612     A.U. after    1 cycles

  Exact polarizability: 134.375   6.568 113.225  -0.495  -1.806  96.998
 Approx polarizability: 159.545   5.390 156.552  -2.758  -5.842 146.228

                     1                      2                      3
                     A                      A                      A
 Frequencies --    20.6716                35.6337                53.1270
 Red. masses --     2.8072                 3.4627                 3.7964
 Frc consts  --     0.0007                 0.0026                 0.0063
 IR Inten    --     0.0566                 0.1557                 1.3537

                     4                      5                      6
                     A                      A                      A
 Frequencies --    68.9659                83.9946               102.6596
 Red. masses --     2.1199                 1.9812                 1.5000
 Frc consts  --     0.0059                 0.0082                 0.0093
 IR Inten    --     0.9505                 1.7293                 0.0081

                     7                      8                      9
                     A                      A                      A
 Frequencies --   111.2452               120.3331               182.9356
 Red. masses --     1.4133                 1.8134                 2.5166
 Frc consts  --     0.0103                 0.0155                 0.0496
 IR Inten    --     0.0291                 0.1238                 3.8301

                    10                     11                     12
                     A                      A                      A
 Frequencies --   187.1731               194.1584               225.8288
 Red. masses --     2.2453                 1.2464                 1.2282
 Frc consts  --     0.0463                 0.0277                 0.0369
 IR Inten    --    11.3033               101.3559                 5.0822

                    13                     14                     15
                     A                      A                      A
 Frequencies --   246.6900               256.3597               320.8932
 Red. masses --     3.1949                 2.5535                 3.1661
 Frc consts  --     0.1146                 0.0989                 0.1921
 IR Inten    --     0.4299                 7.0609                 1.6993

                    16                     17                     18
                     A                      A                      A
 Frequencies --   368.8506               383.4935               422.0413
 Red. masses --     2.4216                 2.0816                 3.0022
 Frc consts  --     0.1941                 0.1804                 0.3151
 IR Inten    --     0.4315                 0.4470                 0.2717

                    19                     20                     21
                     A                      A                      A
 Frequencies --   459.0223               483.6524               622.0258
 Red. masses --     2.0745                 2.5884                 2.4658
 Frc consts  --     0.2575                 0.3567                 0.5621
 IR Inten    --     2.3842                 3.2449                 3.5089

                    22                     23                     24
                     A                      A                      A
 Frequencies --   743.2363               765.0760               806.9545
 Red. masses --     1.1572                 3.4970                 3.3721
 Frc consts  --     0.3766                 1.2060                 1.2937
 IR Inten    --     5.9064                 2.0885                 1.6676

                    25                     26                     27
                     A                      A                      A
 Frequencies --   835.8429               867.7033               939.0382
 Red. masses --     1.6875                 2.4890                 1.8790
 Frc consts  --     0.6946                 1.1041                 0.9762
 IR Inten    --     6.2265                10.5075                 1.0711

                    28                     29                     30
                     A                      A                      A
 Frequencies --   943.3077               944.1069               973.2469
 Red. masses --     1.5481                 1.8199                 2.2742
 Frc consts  --     0.8116                 0.9558                 1.2692
 IR Inten    --     0.9266                 1.1492                 1.0285

                    31                     32                     33
                     A                      A                      A
 Frequencies --   979.4981               989.9726              1010.2764
 Red. masses --     1.4032                 1.6386                 1.9218
 Frc consts  --     0.7932                 0.9462                 1.1557
 IR Inten    --     2.0383                 3.7926                 2.8186

                    34                     35                     36
                     A                      A                      A
 Frequencies --  1015.9180              1035.7213              1049.3480
 Red. masses --     2.7135                 1.6669                 2.5366
 Frc consts  --     1.6501                 1.0535                 1.6457
 IR Inten    --    21.6632                 0.5752                 1.8123

                    37                     38                     39
                     A                      A                      A
 Frequencies --  1077.2907              1135.6660              1143.8676
 Red. masses --     1.5955                 2.1456                 1.5004
 Frc consts  --     1.0910                 1.6304                 1.1567
 IR Inten    --     0.6503                 0.6261                 1.5104

                    40                     41                     42
                     A                      A                      A
 Frequencies --  1192.8291              1257.3928              1270.7318
 Red. masses --     2.0068                 1.3502                 1.6314
 Frc consts  --     1.6824                 1.2577                 1.5521
 IR Inten    --     3.3083                 1.2410                 0.0906

                    43                     44                     45
                     A                      A                      A
 Frequencies --  1289.9386              1298.9500              1322.1410
 Red. masses --     1.6242                 1.3977                 1.3139
 Frc consts  --     1.5923                 1.3894                 1.3532
 IR Inten    --     8.9960                 0.2503                 2.8100

                    46                     47                     48
                     A                      A                      A
 Frequencies --  1333.4691              1348.5982              1359.4806
 Red. masses --     1.4618                 1.3109                 1.1397
 Frc consts  --     1.5314                 1.4047                 1.2411
 IR Inten    --     4.7172                 2.2281                34.1403

                    49                     50                     51
                     A                      A                      A
 Frequencies --  1361.6677              1374.2203              1393.8302
 Red. masses --     1.4246                 1.3752                 1.2575
 Frc consts  --     1.5563                 1.5301                 1.4393
 IR Inten    --     0.5175                 9.3625                15.3438

                    52                     53                     54
                     A                      A                      A
 Frequencies --  1396.6275              1398.1780              1415.3013
 Red. masses --     1.4937                 1.3146                 1.2099
 Frc consts  --     1.7166                 1.5142                 1.4279
 IR Inten    --     2.4615                 5.5389                 3.0776

                    55                     56                     57
                     A                      A                      A
 Frequencies --  1417.6389              1464.8938              1471.7379
 Red. masses --     1.2524                 1.0881                 1.0698
 Frc consts  --     1.4830                 1.3757                 1.3652
 IR Inten    --    11.6238                 6.2213                 1.7355

                    58                     59                     60
                     A                      A                      A
 Frequencies --  1476.2201              1478.3480              1486.0615
 Red. masses --     1.0646                 1.0534                 1.0695
 Frc consts  --     1.3669                 1.3564                 1.3916
 IR Inten    --     7.2994                 5.3026                 1.2512

                    61                     62                     63
                     A                      A                      A
 Frequencies --  1489.2427              1495.8039              1499.9916
 Red. masses --     1.0834                 1.0722                 1.0490
 Frc consts  --     1.4157                 1.4135                 1.3906
 IR Inten    --     2.9243                 1.4321                 7.2216

                    64                     65                     66
                     A                      A                      A
 Frequencies --  1503.4212              1508.4520              2918.9826
 Red. masses --     1.0908                 1.0657                 1.0621
 Frc consts  --     1.4527                 1.4287                 5.3320
 IR Inten    --     3.1651                 9.5414                40.5029

                    67                     68                     69
                     A                      A                      A
 Frequencies --  2924.7390              2976.5672              2978.0581
 Red. masses --     1.0638                 1.0807                 1.0615
 Frc consts  --     5.3614                 5.6415                 5.5467
 IR Inten    --    86.8428                26.1877                24.4682

                    70                     71                     72
                     A                      A                      A
 Frequencies --  3005.6175              3008.8599              3020.1009
 Red. masses --     1.0651                 1.0711                 1.0798
 Frc consts  --     5.6689                 5.7134                 5.8027
 IR Inten    --     7.4375                57.1536                 3.7666

                    73                     74                     75
                     A                      A                      A
 Frequencies --  3020.9778              3023.0370              3023.4196
 Red. masses --     1.0768                 1.0567                 1.0601
 Frc consts  --     5.7902                 5.6894                 5.7094
 IR Inten    --    37.8306                 6.1239                72.1481

                    76                     77                     78
                     A                      A                      A
 Frequencies --  3028.2493              3056.9477              3068.6388
 Red. masses --     1.0511                 1.0905                 1.1009
 Frc consts  --     5.6792                 6.0041                 6.1076
 IR Inten    --    35.7221                11.3293                 8.7847

                    79                     80                     81
                     A                      A                      A
 Frequencies --  3069.9877              3071.6302              3077.0869
 Red. masses --     1.1046                 1.1002                 1.1008
 Frc consts  --     6.1336                 6.1160                 6.1412
 IR Inten    --    38.0405                54.7227                56.3064

                    82                     83                     84
                     A                      A                      A
 Frequencies --  3084.1327              3100.6036              3775.0832
 Red. masses --     1.1006                 1.1017                 1.0688
 Frc consts  --     6.1680                 6.2400                 8.9740
 IR Inten    --    44.9396                30.0973                40.1314

 - Thermochemistry -
 -------------------
 Temperature   298.150 Kelvin.  Pressure   1.00000 Atm.
 Atom     1 has atomic number  6 and mass  12.00000

 Molecular mass:   159.13850 amu.
 Principal axes and moments of inertia in atomic units:
                           1         2         3
     Eigenvalues --  1016.730894061.799784692.80006
           X            0.99984   0.01783   0.00116
           Y           -0.01784   0.99977   0.01201
           Z           -0.00094  -0.01203   0.99993
 This molecule is an asymmetric top.
 Rotational symmetry number  1.
 Warning -- assumption of classical behavior for rotation
           may cause significant error
 Rotational temperatures (Kelvin)      0.08519     0.02132     0.01846
 Rotational constants (GHZ):           1.77504     0.44432     0.38458
 Zero-point vibrational energy     698282.5 (Joules/Mol)
                                  166.89352 (Kcal/Mol)
 Warning -- explicit consideration of  20 degrees of freedom as
           vibrations may cause significant error
 Vibrational temperatures:     29.74    51.27    76.44    99.23   120.85
          (Kelvin)            147.70   160.06   173.13   263.20   269.30
                              279.35   324.92   354.93   368.84   461.69
                              530.69   551.76   607.22   660.43   695.87
                              894.96  1069.35  1100.77  1161.03  1202.59
                             1248.43  1351.06  1357.21  1358.36  1400.28
                             1409.28  1424.35  1453.56  1461.68  1490.17
                             1509.78  1549.98  1633.97  1645.77  1716.21
                             1809.11  1828.30  1855.93  1868.90  1902.26
                             1918.56  1940.33  1955.99  1959.13  1977.19
                             2005.41  2009.43  2011.66  2036.30  2039.66
                             2107.65  2117.50  2123.95  2127.01  2138.11
                             2142.69  2152.13  2158.15  2163.09  2170.32
                             4199.76  4208.04  4282.61  4284.76  4324.41
                             4329.07  4345.25  4346.51  4349.47  4350.02
                             4356.97  4398.26  4415.08  4417.02  4419.39
                             4427.24  4437.37  4461.07  5431.50

 Zero-point correction=                           0.265962 (Hartree/Particle)
 Thermal correction to Energy=                    0.281367
 Thermal correction to Enthalpy=                  0.282311
 Thermal correction to Gibbs Free Energy=         0.220884
 Sum of electronic and zero-point Energies=           -504.580180
 Sum of electronic and thermal Energies=              -504.564774
 Sum of electronic and thermal Enthalpies=            -504.563830
 Sum of electronic and thermal Free Energies=         -504.625258

                     E (Thermal)             CV                S
                      KCal/Mol        Cal/Mol-Kelvin    Cal/Mol-Kelvin
 Total                  176.561             53.117            129.286
 Electronic               0.000              0.000              1.377
 Translational            0.889              2.981             41.103
 Rotational               0.889              2.981             31.339
 Vibrational            174.783             47.156             55.466
 Vibration     1          0.593              1.986              6.569
 Vibration     2          0.594              1.982              5.488
 Vibration     3          0.596              1.976              4.697
 Vibration     4          0.598              1.969              4.183
 Vibration     5          0.601              1.960              3.795
 Vibration     6          0.605              1.947              3.403
 Vibration     7          0.607              1.940              3.247
 Vibration     8          0.609              1.932              3.095
 Vibration     9          0.630              1.863              2.298
 Vibration    10          0.632              1.857              2.256
 Vibration    11          0.635              1.848              2.188
 Vibration    12          0.650              1.802              1.912
 Vibration    13          0.661              1.768              1.754
 Vibration    14          0.666              1.752              1.686
 Vibration    15          0.706              1.634              1.306
 Vibration    16          0.741              1.536              1.085
 Vibration    17          0.753              1.505              1.025
 Vibration    18          0.784              1.422              0.885
 Vibration    19          0.817              1.341              0.769
 Vibration    20          0.840              1.286              0.700

 Optimization completed.
    -- Stationary point found.
 Normal termination of Gaussian 09 at Fri Feb  7 23:42:51 2014.

 -----------------------------------------------------------
 #P Geom=AllCheck Guess=TCheck SCRF=Check CCSD(T)/6-31+G(d')
 -----------------------------------------------------------

 Structure from the checkpoint file:  C9H18OOH_1_26_g.chk
 ---------------------
 optimization and freq
 ---------------------
 Charge =  0 Multiplicity = 2

 SCF Done:  E(UHF) =  -501.446658518     A.U. after   16 cycles
 E2 =    -0.1568180834D+01 EUMP2 =    -0.50301483935241D+03
 CCSD(T)
 CCSD(T)= -0.50318713382D+03
 =-503.1314666\CCSD=-503.1340165\CCSD(T)=-503.1871338\S2=0.765535\S2-1=
 Normal termination of Gaussian 09 at Sat Feb  8 09:35:56 2014.

 -----------------------------------------------------
 #P Geom=AllCheck Guess=TCheck SCRF=Check MP4SDQ/CBSB4
 -----------------------------------------------------

 Structure from the checkpoint file:  C9H18OOH_1_26_g.chk
 ---------------------
 optimization and freq
 ---------------------
 Charge =  0 Multiplicity = 2

 SCF Done:  E(UHF) =  -501.478102686     A.U. after   13 cycles
 E2 =    -0.1693656706D+01 EUMP2 =    -0.50317175939146D+03
 Normal termination of Gaussian 09 at Sat Feb  8 10:07:24 2014.

 ----------------------------------------------------------------------
 #P Geom=AllCheck Guess=TCheck SCRF=Check MP2/CBSB3 CBSExtrap=(NMin=10,
 MinPop)
 ----------------------------------------------------------------------

 Structure from the checkpoint file:  C9H18OOH_1_26_g.chk
 ---------------------
 optimization and freq
 ---------------------
 Charge =  0 Multiplicity = 2

                         Standard orientation:
 ---------------------------------------------------------------------
 Center     Atomic      Atomic             Coordinates (Angstroms)
 Number     Number       Type             X           Y           Z
 ---------------------------------------------------------------------
      1          6           0       -3.118467   -1.622818   -0.417910
      2          1           0       -2.828706   -2.586478   -0.845017
      3          1           0       -3.426978   -0.966514   -1.235205
      4          1           0       -3.989809   -1.788547    0.223356
      5          6           0       -1.955872   -0.998347    0.366833
      6          1           0       -1.714739   -1.664247    1.209227
      7          6           0       -0.693583   -0.886268   -0.511150
      8          1           0       -0.506072   -1.875664   -0.947166
      9          1           0       -0.897610   -0.212214   -1.348976
     10          6           0        0.573188   -0.421996    0.216413
     11          1           0        0.749435   -1.048885    1.099627
     12          1           0        0.440841    0.601914    0.576516
     13          6           0        1.830163   -0.467068   -0.686579
     14          1           0        1.622496    0.133890   -1.583357
     15          1           0        1.972895   -1.498565   -1.032690
     16          6           0        3.076244    0.027548   -0.012193
     17          6           0        4.103930   -0.940763    0.479105
     18          1           0        4.860737   -1.169296   -0.292574
     19          1           0        4.655101   -0.548752    1.341376
     20          1           0        3.657125   -1.896795    0.769417
     21          6           0       -2.398706    0.317748    1.021235
     22          1           0       -3.264943    0.128554    1.665576
     23          1           0       -1.609210    0.763063    1.633882
     24          6           0        3.412568    1.483910   -0.059438
     25          1           0        3.954300    1.809172    0.836174
     26          1           0        4.061853    1.728824   -0.918728
     27          1           0        2.517524    2.105844   -0.157818
     28          8           0       -2.900706    1.302668    0.115220
     29          8           0       -1.763184    1.967323   -0.510294
     30          1           0       -1.919912    2.873091   -0.210922
 ---------------------------------------------------------------------

 SCF Done:  E(UHF) =  -501.615291460     A.U. after   14 cycles
 E2 =    -0.1996710911D+01 EUMP2 =    -0.50361200237076D+03
 E2(CBS)=      -2.191392 CBS-Int=       0.065753 OIii=      17.381518

 The electronic state is 2-A.
 Alpha  occ. eigenvalues --  -20.62193 -20.62130 -11.27781 -11.22680 -11.21828
 Alpha  occ. eigenvalues --  -11.21153 -11.21082 -11.20944 -11.20893 -11.20842
 Alpha  occ. eigenvalues --  -11.20662  -1.46727  -1.22846  -1.10065  -1.07468
 Alpha  occ. eigenvalues --   -1.00676  -0.93239  -0.91835  -0.91124  -0.82366
 Alpha  occ. eigenvalues --   -0.76461  -0.73453  -0.71987  -0.66671  -0.64157
 Alpha  occ. eigenvalues --   -0.63546  -0.60880  -0.60670  -0.60040  -0.57229
 Alpha  occ. eigenvalues --   -0.56413  -0.55851  -0.53388  -0.53017  -0.51346
 Alpha  occ. eigenvalues --   -0.50722  -0.50050  -0.49101  -0.48901  -0.47662
 Alpha  occ. eigenvalues --   -0.45978  -0.45547  -0.44008  -0.42896  -0.30062
 Alpha virt. eigenvalues --    0.03799   0.04677   0.04797   0.05399   0.06319
 Alpha virt. eigenvalues --    0.06572   0.06823   0.07421   0.07920   0.08490
 Alpha virt. eigenvalues --    0.09026   0.09307   0.09781   0.10226   0.11699

  Beta  occ. eigenvalues --  -20.62193 -20.62130 -11.27781 -11.22679 -11.21431
  Beta  occ. eigenvalues --  -11.21284 -11.21229 -11.20920 -11.20822 -11.20660
  Beta  occ. eigenvalues --  -11.19286  -1.46728  -1.22846  -1.08806  -1.05310
  Beta  occ. eigenvalues --   -0.99843  -0.93241  -0.91819  -0.91097  -0.81727
  Beta  occ. eigenvalues --   -0.76383  -0.71992  -0.69388  -0.66618  -0.64070
  Beta  occ. eigenvalues --   -0.63375  -0.60685  -0.59706  -0.57134  -0.56705
  Beta  occ. eigenvalues --   -0.56036  -0.55109  -0.52872  -0.52300  -0.51212
  Beta  occ. eigenvalues --   -0.50589  -0.49654  -0.48832  -0.48509  -0.47398
  Beta  occ. eigenvalues --   -0.45736  -0.45396  -0.43369  -0.42841
  Beta virt. eigenvalues --    0.03804   0.04684   0.04798   0.05403   0.06329
  Beta virt. eigenvalues --    0.06556   0.06799   0.07415   0.07918   0.08429
  Beta virt. eigenvalues --    0.09024   0.09323   0.09785   0.10231   0.11652

 Mulliken atomic charges:
              1
     1  C   -0.360142
     2  H    0.055683
     3  H    0.089627
     4  H    0.083038
     5  C    0.955214
     6  H    0.038629
     7  C   -0.403142
     8  H    0.078549
     9  H    0.067144
    10  C   -0.222685
    11  H    0.072610
    12  H    0.008978
    13  C   -0.690354
    14  H    0.093922
    15  H    0.065015
    16  C    0.988957
    17  C   -0.477503
    18  H    0.049159
    19  H    0.066441
    20  H    0.075561
    21  C   -0.519621
    22  H    0.111280
    23  H    0.123216
    24  C   -0.450985
    25  H    0.059352
    26  H    0.057350
    27  H    0.085555
    28  O   -0.142925
    29  O   -0.246315
    30  H    0.288390
 Sum of Mulliken atomic charges =   0.00000

 Dipole moment (field-independent basis, Debye):
    X=              0.3310    Y=              0.2643    Z=              1.4069  Tot=              1.4693
 Quadrupole moment (field-independent basis, Debye-Ang):
   XX=            -75.6861   YY=            -65.9664   ZZ=            -71.7438
   XY=              0.4739   XZ=             -3.6721   YZ=              1.0105

 Normal termination of Gaussian 09 at Sat Feb  8 11:29:03 2014.
