 Gaussian 09, Revision C.01,

 --------------------------------------------------
 #p UB3LYP/6-311++G(d,p) guess=mix stable=(opt,xqc)
 --------------------------------------------------

 (Enter /usr/caen/gaussian-09revc/g09/l101.exe)
 --------------------------------------------
 C9H18OOH_1_26_e using cbs-qb3 to cal. energy
 --------------------------------------------
 Charge =  0 Multiplicity = 2

 SCF Done:  E(UB3LYP) =  -504.851408365     A.U. after   21 cycles
 Normal termination of Gaussian 09 at Sat Feb  8 03:00:27 2014.
 Gaussian 09:  EM64L-G09RevC.01 23-Sep-2011

 ------------------------------------------------
 #p cbs-qb3 opt=calcfc freq geom=check guess=read
 ------------------------------------------------

 ---------------------
 optimization and freq
 ---------------------
 Structure from the checkpoint file:  C9H18OOH_1_26_e.chk
 Charge =  0 Multiplicity = 2

 SCF Done:  E(UB3LYP) =  -504.842988413     A.U. after   10 cycles
 SCF Done:  E(UB3LYP) =  -504.843145145     A.U. after   13 cycles
 SCF Done:  E(UB3LYP) =  -504.843161385     A.U. after   11 cycles
 SCF Done:  E(UB3LYP) =  -504.843163394     A.U. after   10 cycles
 SCF Done:  E(UB3LYP) =  -504.843163633     A.U. after    9 cycles
 SCF Done:  E(UB3LYP) =  -504.843163786     A.U. after    7 cycles
 SCF Done:  E(UB3LYP) =  -504.843163794     A.U. after    6 cycles
 Optimization completed.
    -- Stationary point found.
 Normal termination of Gaussian 09 at Sat Feb  8 03:27:22 2014.

 ---------------------------------------------------------
 #P Geom=AllCheck Guess=TCheck SCRF=Check B3LYP/CBSB7 Freq
 ---------------------------------------------------------

 Structure from the checkpoint file:  C9H18OOH_1_26_e.chk
 ---------------------
 optimization and freq
 ---------------------
 Charge =  0 Multiplicity = 2

 SCF Done:  E(UB3LYP) =  -504.843163794     A.U. after    1 cycles

  Exact polarizability: 134.511   6.217 105.160  -5.042   1.061 102.015
 Approx polarizability: 159.824   3.323 148.179  -7.127  -3.865 155.131

                     1                      2                      3
                     A                      A                      A
 Frequencies --    23.4676                26.9722                45.6673
 Red. masses --     4.1960                 2.9705                 3.9729
 Frc consts  --     0.0014                 0.0013                 0.0049
 IR Inten    --     0.0711                 0.4255                 2.1951

                     4                      5                      6
                     A                      A                      A
 Frequencies --    72.7732                99.9881               154.7721
 Red. masses --     3.3023                 2.7331                 2.7656
 Frc consts  --     0.0103                 0.0161                 0.0390
 IR Inten    --     2.6916                 0.4762                 2.2462

                     7                      8                      9
                     A                      A                      A
 Frequencies --   192.1025               201.7608               205.6397
 Red. masses --     1.1981                 1.5588                 1.7740
 Frc consts  --     0.0261                 0.0374                 0.0442
 IR Inten    --   117.4035                 2.3637                 2.1798

                    10                     11                     12
                     A                      A                      A
 Frequencies --   221.3158               224.8393               247.1998
 Red. masses --     1.3806                 1.2211                 2.5548
 Frc consts  --     0.0398                 0.0364                 0.0920
 IR Inten    --     2.4691                 1.6011                 6.6004

                    13                     14                     15
                     A                      A                      A
 Frequencies --   254.4798               273.7058               344.3138
 Red. masses --     1.2052                 2.7346                 2.7407
 Frc consts  --     0.0460                 0.1207                 0.1914
 IR Inten    --     1.6197                 4.3883                 0.5350

                    16                     17                     18
                     A                      A                      A
 Frequencies --   367.3473               400.7011               441.7776
 Red. masses --     2.2821                 2.1199                 2.0290
 Frc consts  --     0.1814                 0.2005                 0.2333
 IR Inten    --     1.0656                 1.3223                 3.3218

                    19                     20                     21
                     A                      A                      A
 Frequencies --   452.0249               473.4883               509.8642
 Red. masses --     2.2520                 1.4508                 2.4626
 Frc consts  --     0.2711                 0.1916                 0.3772
 IR Inten    --     1.6725                13.5754                 2.1831

                    22                     23                     24
                     A                      A                      A
 Frequencies --   617.3553               780.2325               817.4076
 Red. masses --     2.6639                 3.4560                 2.6815
 Frc consts  --     0.5982                 1.2396                 1.0556
 IR Inten    --     4.4299                 3.0050                 0.0675

                    25                     26                     27
                     A                      A                      A
 Frequencies --   836.0151               861.9958               900.0351
 Red. masses --     1.9076                 2.0907                 1.7041
 Frc consts  --     0.7855                 0.9153                 0.8133
 IR Inten    --     9.7787                 6.3149                 1.3856

                    28                     29                     30
                     A                      A                      A
 Frequencies --   931.0570               931.8955               943.8791
 Red. masses --     1.6868                 1.4340                 2.6251
 Frc consts  --     0.8615                 0.7337                 1.3779
 IR Inten    --     0.1109                 1.8561                 1.6765

                    31                     32                     33
                     A                      A                      A
 Frequencies --   948.2728               965.4100              1006.7286
 Red. masses --     1.8010                 1.5029                 2.1899
 Frc consts  --     0.9542                 0.8253                 1.3077
 IR Inten    --     1.4825                 0.1340                21.4907

                    34                     35                     36
                     A                      A                      A
 Frequencies --  1021.8144              1060.3139              1105.2830
 Red. masses --     2.5135                 1.6987                 1.7010
 Frc consts  --     1.5463                 1.1252                 1.2243
 IR Inten    --     2.2997                 7.0722                 0.5820

                    37                     38                     39
                     A                      A                      A
 Frequencies --  1117.0779              1135.4493              1146.1924
 Red. masses --     2.0030                 2.0362                 1.9869
 Frc consts  --     1.4726                 1.5467                 1.5380
 IR Inten    --     1.6734                 0.3228                 0.5699

                    40                     41                     42
                     A                      A                      A
 Frequencies --  1183.5667              1190.9416              1214.7056
 Red. masses --     2.2153                 1.8429                 1.4395
 Frc consts  --     1.8284                 1.5401                 1.2514
 IR Inten    --     4.4343                 3.5986                 1.4265

                    43                     44                     45
                     A                      A                      A
 Frequencies --  1249.1871              1264.2566              1295.3746
 Red. masses --     1.2897                 1.2439                 1.1335
 Frc consts  --     1.1858                 1.1714                 1.1206
 IR Inten    --     0.4828                 3.7655                 3.0267

                    46                     47                     48
                     A                      A                      A
 Frequencies --  1325.0037              1355.1355              1360.3986
 Red. masses --     1.2647                 1.2260                 1.3583
 Frc consts  --     1.3082                 1.3265                 1.4810
 IR Inten    --     1.0976                22.2195                 1.8343

                    49                     50                     51
                     A                      A                      A
 Frequencies --  1362.9466              1366.5142              1387.1980
 Red. masses --     1.4178                 1.3662                 1.4129
 Frc consts  --     1.5517                 1.5031                 1.6020
 IR Inten    --    16.0718                 1.7500                 2.0407

                    52                     53                     54
                     A                      A                      A
 Frequencies --  1391.0647              1400.9456              1413.5789
 Red. masses --     1.2501                 1.2723                 1.3272
 Frc consts  --     1.4252                 1.4713                 1.5626
 IR Inten    --    14.9773                 8.0370                22.8792

                    55                     56                     57
                     A                      A                      A
 Frequencies --  1418.2513              1425.5216              1453.3685
 Red. masses --     1.2672                 1.5887                 1.0890
 Frc consts  --     1.5017                 1.9021                 1.3553
 IR Inten    --     0.4615                 2.5363                 5.9128

                    58                     59                     60
                     A                      A                      A
 Frequencies --  1463.6857              1475.3209              1489.6080
 Red. masses --     1.0774                 1.0850                 1.0411
 Frc consts  --     1.3600                 1.3914                 1.3611
 IR Inten    --     0.7011                 4.7580                 0.5841

                    61                     62                     63
                     A                      A                      A
 Frequencies --  1493.5510              1495.9476              1503.6409
 Red. masses --     1.0565                 1.0431                 1.0500
 Frc consts  --     1.3885                 1.3754                 1.3986
 IR Inten    --     4.1310                 9.0068                 8.3197

                    64                     65                     66
                     A                      A                      A
 Frequencies --  1506.7627              1511.0746              2902.6469
 Red. masses --     1.0572                 1.0523                 1.0727
 Frc consts  --     1.4142                 1.4156                 5.3251
 IR Inten    --     7.0337                11.7195                40.4723

                    67                     68                     69
                     A                      A                      A
 Frequencies --  2918.8162              2980.4050              2983.9015
 Red. masses --     1.0727                 1.0810                 1.0802
 Frc consts  --     5.3842                 5.6574                 5.6666
 IR Inten    --    58.1868                21.4371                 1.1656

                    70                     71                     72
                     A                      A                      A
 Frequencies --  2999.1505              3012.2998              3017.5782
 Red. masses --     1.0841                 1.0360                 1.0375
 Frc consts  --     5.7453                 5.5385                 5.5660
 IR Inten    --    30.4694                31.6246                33.7761

                    73                     74                     75
                     A                      A                      A
 Frequencies --  3021.3035              3027.1658              3064.6661
 Red. masses --     1.0537                 1.0399                 1.0851
 Frc consts  --     5.6670                 5.6148                 6.0047
 IR Inten    --    42.1284                26.8496                 8.6835

                    76                     77                     78
                     A                      A                      A
 Frequencies --  3069.4475              3071.0544              3077.5622
 Red. masses --     1.1073                 1.1003                 1.0997
 Frc consts  --     6.1468                 6.1142                 6.1365
 IR Inten    --    30.4928                 6.7356                73.5719

                    79                     80                     81
                     A                      A                      A
 Frequencies --  3083.2680              3084.9065              3089.3371
 Red. masses --     1.1017                 1.1010                 1.1009
 Frc consts  --     6.1710                 6.1734                 6.1903
 IR Inten    --    36.3437                40.6790                47.1872

                    82                     83                     84
                     A                      A                      A
 Frequencies --  3100.8012              3115.0460              3770.6589
 Red. masses --     1.1014                 1.0859                 1.0688
 Frc consts  --     6.2397                 6.2080                 8.9535
 IR Inten    --    24.1037                35.5357                35.1059

 - Thermochemistry -
 -------------------
 Temperature   298.150 Kelvin.  Pressure   1.00000 Atm.
 Atom     1 has atomic number  6 and mass  12.00000

 Molecular mass:   159.13850 amu.
 Principal axes and moments of inertia in atomic units:
                           1         2         3
     Eigenvalues --  1024.162633667.569854114.94028
           X            0.99977   0.02100  -0.00385
           Y           -0.02083   0.99896   0.04058
           Z            0.00470  -0.04049   0.99917
 This molecule is an asymmetric top.
 Rotational symmetry number  1.
 Warning -- assumption of classical behavior for rotation
           may cause significant error
 Rotational temperatures (Kelvin)      0.08457     0.02362     0.02105
 Rotational constants (GHZ):           1.76216     0.49208     0.43858
 Zero-point vibrational energy     698309.2 (Joules/Mol)
                                  166.89990 (Kcal/Mol)
 Warning -- explicit consideration of  22 degrees of freedom as
           vibrations may cause significant error
 Vibrational temperatures:     33.76    38.81    65.70   104.70   143.86
          (Kelvin)            222.68   276.39   290.29   295.87   318.42
                              323.49   355.66   366.14   393.80   495.39
                              528.53   576.52   635.62   650.36   681.24
                              733.58   888.24  1122.58  1176.07  1202.84
                             1240.22  1294.95  1339.58  1340.79  1358.03
                             1364.35  1389.01  1448.46  1470.16  1525.55
                             1590.25  1607.22  1633.66  1649.11  1702.89
                             1713.50  1747.69  1797.30  1818.98  1863.75
                             1906.38  1949.74  1957.31  1960.97  1966.11
                             1995.87  2001.43  2015.65  2033.82  2040.54
                             2051.01  2091.07  2105.91  2122.66  2143.21
                             2148.88  2152.33  2163.40  2167.89  2174.10
                             4176.26  4199.52  4288.13  4293.16  4315.10
                             4334.02  4341.62  4346.98  4355.41  4409.37
                             4416.24  4418.56  4427.92  4436.13  4438.49
                             4444.86  4461.36  4481.85  5425.13

 Zero-point correction=                           0.265972 (Hartree/Particle)
 Thermal correction to Energy=                    0.280889
 Thermal correction to Enthalpy=                  0.281834
 Thermal correction to Gibbs Free Energy=         0.222189
 Sum of electronic and zero-point Energies=           -504.577192
 Sum of electronic and thermal Energies=              -504.562274
 Sum of electronic and thermal Enthalpies=            -504.561330
 Sum of electronic and thermal Free Energies=         -504.620975

                     E (Thermal)             CV                S
                      KCal/Mol        Cal/Mol-Kelvin    Cal/Mol-Kelvin
 Total                  176.261             53.267            125.532
 Electronic               0.000              0.000              1.377
 Translational            0.889              2.981             41.103
 Rotational               0.889              2.981             31.114
 Vibrational            174.483             47.306             51.938
 Vibration     1          0.593              1.985              6.317
 Vibration     2          0.593              1.984              6.041
 Vibration     3          0.595              1.979              4.997
 Vibration     4          0.599              1.967              4.077
 Vibration     5          0.604              1.949              3.455
 Vibration     6          0.620              1.897              2.613
 Vibration     7          0.634              1.851              2.207
 Vibration     8          0.639              1.837              2.117
 Vibration     9          0.640              1.832              2.082
 Vibration    10          0.648              1.809              1.948
 Vibration    11          0.650              1.803              1.920
 Vibration    12          0.661              1.767              1.750
 Vibration    13          0.665              1.755              1.699
 Vibration    14          0.676              1.722              1.573
 Vibration    15          0.723              1.587              1.192
 Vibration    16          0.740              1.539              1.091
 Vibration    17          0.767              1.469              0.960
 Vibration    18          0.802              1.379              0.821
 Vibration    19          0.811              1.356              0.790
 Vibration    20          0.830              1.309              0.728
 Vibration    21          0.865              1.228              0.634
 Vibration    22          0.977              0.995              0.421

 Optimization completed.
    -- Stationary point found.
 Normal termination of Gaussian 09 at Sat Feb  8 03:40:52 2014.

 -----------------------------------------------------------
 #P Geom=AllCheck Guess=TCheck SCRF=Check CCSD(T)/6-31+G(d')
 -----------------------------------------------------------

 Structure from the checkpoint file:  C9H18OOH_1_26_e.chk
 ---------------------
 optimization and freq
 ---------------------
 Charge =  0 Multiplicity = 2

 SCF Done:  E(UHF) =  -501.445178422     A.U. after   22 cycles
 E2 =    -0.1568975795D+01 EUMP2 =    -0.50301415421693D+03
 CCSD(T)
 CCSD(T)= -0.50318606392D+03
 -503.1304056\CCSD=-503.1328756\CCSD(T)=-503.1860639\S2=0.764081\S2-1=0
 Normal termination of Gaussian 09 at Sat Feb  8 13:45:20 2014.

 -----------------------------------------------------
 #P Geom=AllCheck Guess=TCheck SCRF=Check MP4SDQ/CBSB4
 -----------------------------------------------------

 Structure from the checkpoint file:  C9H18OOH_1_26_e.chk
 ---------------------
 optimization and freq
 ---------------------
 Charge =  0 Multiplicity = 2

 SCF Done:  E(UHF) =  -501.476750421     A.U. after   14 cycles
 E2 =    -0.1694402033D+01 EUMP2 =    -0.50317115245407D+03
 Normal termination of Gaussian 09 at Sat Feb  8 14:29:44 2014.

 ----------------------------------------------------------------------
 #P Geom=AllCheck Guess=TCheck SCRF=Check MP2/CBSB3 CBSExtrap=(NMin=10,
 MinPop)
 ----------------------------------------------------------------------

 Structure from the checkpoint file:  C9H18OOH_1_26_e.chk
 ---------------------
 optimization and freq
 ---------------------
 Charge =  0 Multiplicity = 2

                         Standard orientation:
 ---------------------------------------------------------------------
 Center     Atomic      Atomic             Coordinates (Angstroms)
 Number     Number       Type             X           Y           Z
 ---------------------------------------------------------------------
      1          6           0       -3.409797   -1.200757   -0.121841
      2          1           0       -3.445403   -2.275091   -0.321337
      3          1           0       -3.561682   -0.672570   -1.066028
      4          1           0       -4.248849   -0.953395    0.535616
      5          6           0       -2.069575   -0.805592    0.510201
      6          1           0       -1.973885   -1.329421    1.472855
      7          6           0       -0.875968   -1.243253   -0.371126
      8          1           0       -1.032518   -2.307834   -0.620237
      9          1           0       -0.912235   -0.703634   -1.321757
     10          6           0        0.464569   -1.067584    0.263053
     11          1           0        0.604493   -1.449499    1.273422
     12          6           0        1.677697   -0.716293   -0.531877
     13          1           0        1.422075    0.073242   -1.253467
     14          1           0        1.978964   -1.581005   -1.152217
     15          6           0        2.899476   -0.273488    0.297878
     16          1           0        3.097009   -1.060192    1.038939
     17          6           0        4.143902   -0.140921   -0.589079
     18          1           0        3.993801    0.622822   -1.360200
     19          1           0        5.020870    0.148425   -0.002711
     20          1           0        4.375233   -1.082692   -1.095414
     21          6           0       -2.046075    0.686178    0.866906
     22          1           0       -2.836863    0.903832    1.593981
     23          1           0       -1.082790    0.977619    1.297251
     24          6           0        2.625931    1.032429    1.055982
     25          1           0        3.488875    1.327510    1.660277
     26          1           0        2.413940    1.847538    0.354916
     27          1           0        1.764727    0.936106    1.721860
     28          8           0       -2.370302    1.572110   -0.207354
     29          8           0       -1.196605    1.716108   -1.059211
     30          1           0       -0.991460    2.648180   -0.903805
 ---------------------------------------------------------------------

 SCF Done:  E(UHF) =  -501.613990129     A.U. after   15 cycles
 E2 =    -0.1997733702D+01 EUMP2 =    -0.50361172383091D+03
 E2(CBS)=      -2.191845 CBS-Int=       0.065648 OIii=      17.374723

 The electronic state is 2-A.
 Alpha  occ. eigenvalues --  -20.62097 -20.62043 -11.27685 -11.22877 -11.22314
 Alpha  occ. eigenvalues --  -11.21873 -11.21207 -11.21154 -11.20752 -11.20734
 Alpha  occ. eigenvalues --  -11.20703  -1.46652  -1.22737  -1.10314  -1.07383
 Alpha  occ. eigenvalues --   -1.01004  -0.92594  -0.92037  -0.91292  -0.81480
 Alpha  occ. eigenvalues --   -0.76454  -0.76137  -0.71764  -0.66529  -0.64277
 Alpha  occ. eigenvalues --   -0.63126  -0.62177  -0.60383  -0.59199  -0.57625
 Alpha  occ. eigenvalues --   -0.56951  -0.54220  -0.53205  -0.53022  -0.52068
 Alpha  occ. eigenvalues --   -0.51057  -0.50272  -0.49182  -0.48039  -0.46520
 Alpha  occ. eigenvalues --   -0.46133  -0.45530  -0.43869  -0.43537  -0.32146
 Alpha virt. eigenvalues --    0.03897   0.04701   0.05026   0.05322   0.06225
 Alpha virt. eigenvalues --    0.06427   0.07063   0.07308   0.08087   0.08566
 Alpha virt. eigenvalues --    0.08775   0.09384   0.09886   0.10468   0.11206

  Beta  occ. eigenvalues --  -20.62094 -20.62041 -11.27677 -11.22764 -11.22266
  Beta  occ. eigenvalues --  -11.21535 -11.21476 -11.20746 -11.20743 -11.20710
  Beta  occ. eigenvalues --  -11.19402  -1.46643  -1.22720  -1.08923  -1.07251
  Beta  occ. eigenvalues --   -0.98418  -0.92555  -0.92027  -0.91247  -0.79306
  Beta  occ. eigenvalues --   -0.76138  -0.74003  -0.71622  -0.66403  -0.64086
  Beta  occ. eigenvalues --   -0.62138  -0.61682  -0.60058  -0.58309  -0.57299
  Beta  occ. eigenvalues --   -0.55915  -0.53694  -0.53065  -0.52810  -0.51795
  Beta  occ. eigenvalues --   -0.50417  -0.49783  -0.48872  -0.47796  -0.46160
  Beta  occ. eigenvalues --   -0.45867  -0.45286  -0.43567  -0.43178
  Beta virt. eigenvalues --    0.03909   0.04709   0.05043   0.05339   0.06241
  Beta virt. eigenvalues --    0.06433   0.07057   0.07253   0.08093   0.08571
  Beta virt. eigenvalues --    0.08772   0.09363   0.09888   0.10465   0.11210

 Mulliken atomic charges:
              1
     1  C   -0.310107
     2  H    0.061460
     3  H    0.085066
     4  H    0.073754
     5  C    0.562982
     6  H    0.026446
     7  C    0.045413
     8  H    0.068333
     9  H    0.065884
    10  C   -0.056164
    11  H    0.156340
    12  C   -0.909097
    13  H    0.082951
    14  H    0.044444
    15  C    0.992067
    16  H    0.024745
    17  C   -0.432238
    18  H    0.055368
    19  H    0.088214
    20  H    0.058084
    21  C   -0.475570
    22  H    0.098514
    23  H    0.103264
    24  C   -0.628397
    25  H    0.084338
    26  H    0.064662
    27  H    0.057626
    28  O   -0.124124
    29  O   -0.233807
    30  H    0.269551
 Sum of Mulliken atomic charges =   0.00000

 Dipole moment (field-independent basis, Debye):
    X=              0.7217    Y=              0.1670    Z=              1.3795  Tot=              1.5658
 Quadrupole moment (field-independent basis, Debye-Ang):
   XX=            -75.2752   YY=            -67.6886   ZZ=            -71.9567
   XY=              2.2168   XZ=             -3.3195   YZ=             -0.1809

 Normal termination of Gaussian 09 at Sat Feb  8 15:57:47 2014.
