 Gaussian 09, Revision C.01,

 --------------------------------------------------
 #p UB3LYP/6-311++G(d,p) guess=mix stable=(opt,xqc)
 --------------------------------------------------

 (Enter /usr/caen/gaussian-09revc/g09/l101.exe)
 --------------------------------------------
 C9H18OOH_1_26_c using cbs-qb3 to cal. energy
 --------------------------------------------
 Charge =  0 Multiplicity = 2

 SCF Done:  E(UB3LYP) =  -504.856599327     A.U. after   21 cycles
 Normal termination of Gaussian 09 at Fri Feb  7 19:38:08 2014.
 Gaussian 09:  EM64L-G09RevC.01 23-Sep-2011

 ------------------------------------------------
 #p cbs-qb3 opt=calcfc freq geom=check guess=read
 ------------------------------------------------

 ---------------------
 optimization and freq
 ---------------------
 Structure from the checkpoint file:  C9H18OOH_1_26_c.chk
 Charge =  0 Multiplicity = 2

 SCF Done:  E(UB3LYP) =  -504.847225110     A.U. after   11 cycles
 SCF Done:  E(UB3LYP) =  -504.847366018     A.U. after   14 cycles
 SCF Done:  E(UB3LYP) =  -504.847419185     A.U. after   13 cycles
 SCF Done:  E(UB3LYP) =  -504.847439119     A.U. after   12 cycles
 SCF Done:  E(UB3LYP) =  -504.847445552     A.U. after    9 cycles
 SCF Done:  E(UB3LYP) =  -504.847447779     A.U. after   10 cycles
 SCF Done:  E(UB3LYP) =  -504.847447754     A.U. after    7 cycles
 SCF Done:  E(UB3LYP) =  -504.847447769     A.U. after    7 cycles
 Optimization completed.
    -- Stationary point found.
 Normal termination of Gaussian 09 at Fri Feb  7 20:06:32 2014.

 ---------------------------------------------------------
 #P Geom=AllCheck Guess=TCheck SCRF=Check B3LYP/CBSB7 Freq
 ---------------------------------------------------------

 Structure from the checkpoint file:  C9H18OOH_1_26_c.chk
 ---------------------
 optimization and freq
 ---------------------
 Charge =  0 Multiplicity = 2

 SCF Done:  E(UB3LYP) =  -504.847447769     A.U. after    1 cycles

  Exact polarizability: 132.833   4.815 112.207  -3.685   1.474  97.850
 Approx polarizability: 155.974   2.288 154.702  -6.474  -2.104 152.613

                     1                      2                      3
                     A                      A                      A
 Frequencies --    32.0692                35.8820                62.0787
 Red. masses --     3.5570                 3.4149                 3.0814
 Frc consts  --     0.0022                 0.0026                 0.0070
 IR Inten    --     0.3989                 0.3653                 1.6675

                     4                      5                      6
                     A                      A                      A
 Frequencies --    85.6478                98.3916               102.3189
 Red. masses --     2.9870                 2.3927                 1.7771
 Frc consts  --     0.0129                 0.0136                 0.0110
 IR Inten    --     0.6841                 0.1291                 0.9650

                     7                      8                      9
                     A                      A                      A
 Frequencies --   108.1615               142.0153               193.3675
 Red. masses --     1.3317                 2.2215                 2.1596
 Frc consts  --     0.0092                 0.0264                 0.0476
 IR Inten    --     0.7998                 0.9686                67.9048

                    10                     11                     12
                     A                      A                      A
 Frequencies --   216.2383               227.7705               239.2005
 Red. masses --     1.4783                 1.1409                 1.9226
 Frc consts  --     0.0407                 0.0349                 0.0648
 IR Inten    --    51.5686                 4.0385                19.3634

                    13                     14                     15
                     A                      A                      A
 Frequencies --   249.2673               259.8796               344.7505
 Red. masses --     2.5816                 1.3708                 3.4849
 Frc consts  --     0.0945                 0.0545                 0.2440
 IR Inten    --     1.1804                 2.2185                 0.9263

                    16                     17                     18
                     A                      A                      A
 Frequencies --   372.9197               398.7268               440.1557
 Red. masses --     2.7805                 2.2742                 2.0399
 Frc consts  --     0.2278                 0.2130                 0.2329
 IR Inten    --     0.6589                 0.6361                 0.7434

                    19                     20                     21
                     A                      A                      A
 Frequencies --   457.6465               506.6615               568.0743
 Red. masses --     2.0357                 2.6602                 3.9339
 Frc consts  --     0.2512                 0.4024                 0.7480
 IR Inten    --     1.2054                 1.9213                10.5620

                    22                     23                     24
                     A                      A                      A
 Frequencies --   739.9583               777.4278               811.1214
 Red. masses --     1.1972                 3.1663                 1.8228
 Frc consts  --     0.3862                 1.1275                 0.7066
 IR Inten    --     2.0651                 5.0854                 1.9006

                    25                     26                     27
                     A                      A                      A
 Frequencies --   830.3474               842.6492               920.1103
 Red. masses --     4.2770                 1.8298                11.1478
 Frc consts  --     1.7374                 0.7655                 5.5606
 IR Inten    --    38.3077                 0.2541                 8.8510

                    28                     29                     30
                     A                      A                      A
 Frequencies --   930.7549               945.1701               961.1445
 Red. masses --     1.2393                 1.7455                 1.5933
 Frc consts  --     0.6326                 0.9187                 0.8672
 IR Inten    --     1.8674                 2.4632                 1.1636

                    31                     32                     33
                     A                      A                      A
 Frequencies --   964.1918               986.6797              1000.8321
 Red. masses --     1.4730                 1.6180                 1.7305
 Frc consts  --     0.8068                 0.9281                 1.0213
 IR Inten    --     0.1775                11.2013                 0.3492

                    34                     35                     36
                     A                      A                      A
 Frequencies --  1021.6281              1041.7359              1058.6706
 Red. masses --     1.4552                 3.4868                 2.3111
 Frc consts  --     0.8948                 2.2294                 1.5261
 IR Inten    --     1.0274                 0.2926                 0.3319

                    37                     38                     39
                     A                      A                      A
 Frequencies --  1120.9784              1138.2265              1190.4917
 Red. masses --     1.4370                 2.0929                 1.7596
 Frc consts  --     1.0639                 1.5975                 1.4693
 IR Inten    --     0.2151                 1.4372                 4.4910

                    40                     41                     42
                     A                      A                      A
 Frequencies --  1205.1276              1223.9568              1254.4596
 Red. masses --     2.0668                 1.6272                 1.5481
 Frc consts  --     1.7685                 1.4362                 1.4354
 IR Inten    --     0.7982                 2.4826                 0.7802

                    43                     44                     45
                     A                      A                      A
 Frequencies --  1297.8391              1300.3487              1311.4368
 Red. masses --     1.6123                 1.2601                 1.4494
 Frc consts  --     1.6000                 1.2554                 1.4687
 IR Inten    --     0.2289                 0.9265                 8.9522

                    46                     47                     48
                     A                      A                      A
 Frequencies --  1331.6758              1345.3592              1348.9670
 Red. masses --     1.0952                 1.2364                 1.3032
 Frc consts  --     1.1443                 1.3185                 1.3972
 IR Inten    --     0.7030                 7.3656                20.1233

                    49                     50                     51
                     A                      A                      A
 Frequencies --  1366.5690              1371.8726              1387.8845
 Red. masses --     1.2648                 1.3268                 1.5411
 Frc consts  --     1.3917                 1.4712                 1.7489
 IR Inten    --    30.0043                 3.4103                 0.0911

                    52                     53                     54
                     A                      A                      A
 Frequencies --  1400.5676              1403.9783              1408.8521
 Red. masses --     1.4357                 1.2794                 1.3520
 Frc consts  --     1.6593                 1.4858                 1.5811
 IR Inten    --     2.8312                12.7282                 2.2078

                    55                     56                     57
                     A                      A                      A
 Frequencies --  1423.3164              1459.9061              1469.5061
 Red. masses --     1.2385                 1.0739                 1.1106
 Frc consts  --     1.4782                 1.3486                 1.4131
 IR Inten    --     6.5734                 3.4920                 4.2861

                    58                     59                     60
                     A                      A                      A
 Frequencies --  1478.8182              1482.7833              1488.7298
 Red. masses --     1.0826                 1.0737                 1.0698
 Frc consts  --     1.3949                 1.3909                 1.3970
 IR Inten    --    10.7994                 1.7987                 5.7541

                    61                     62                     63
                     A                      A                      A
 Frequencies --  1492.3713              1498.0228              1506.3920
 Red. masses --     1.0444                 1.0574                 1.0721
 Frc consts  --     1.3705                 1.3981                 1.4334
 IR Inten    --     1.0574                 2.4545                 2.9003

                    64                     65                     66
                     A                      A                      A
 Frequencies --  1507.5895              1514.4004              2929.6605
 Red. masses --     1.0730                 1.0525                 1.0708
 Frc consts  --     1.4369                 1.4221                 5.4148
 IR Inten    --     3.2969                14.5623                18.1869

                    67                     68                     69
                     A                      A                      A
 Frequencies --  2964.7776              2984.0974              2990.6123
 Red. masses --     1.0553                 1.0794                 1.0743
 Frc consts  --     5.4654                 5.6634                 5.6613
 IR Inten    --    27.7125                 5.1077                 6.9138

                    70                     71                     72
                     A                      A                      A
 Frequencies --  2995.1623              3006.4128              3013.5652
 Red. masses --     1.0722                 1.0695                 1.0360
 Frc consts  --     5.6670                 5.6957                 5.5435
 IR Inten    --    38.5742                33.4265                35.4264

                    73                     74                     75
                     A                      A                      A
 Frequencies --  3018.7896              3023.0572              3026.5288
 Red. masses --     1.0377                 1.0626                 1.0924
 Frc consts  --     5.5719                 5.7218                 5.8957
 IR Inten    --    28.3651                22.0564                39.0440

                    76                     77                     78
                     A                      A                      A
 Frequencies --  3035.5241              3070.0986              3072.3946
 Red. masses --     1.0747                 1.1020                 1.1008
 Frc consts  --     5.8344                 6.1200                 6.1221
 IR Inten    --    36.1094                19.0159                 5.9370

                    79                     80                     81
                     A                      A                      A
 Frequencies --  3076.6913              3078.8247              3079.1445
 Red. masses --     1.0996                 1.0999                 1.1017
 Frc consts  --     6.1327                 6.1429                 6.1540
 IR Inten    --    38.1475                82.2125                44.2001

                    82                     83                     84
                     A                      A                      A
 Frequencies --  3083.4126              3091.8675              3769.9533
 Red. masses --     1.1013                 1.0992                 1.0688
 Frc consts  --     6.1693                 6.1910                 8.9498
 IR Inten    --    62.3823                42.9615                37.2963

 - Thermochemistry -
 -------------------
 Temperature   298.150 Kelvin.  Pressure   1.00000 Atm.
 Atom     1 has atomic number  6 and mass  12.00000

 Molecular mass:   159.13850 amu.
 Principal axes and moments of inertia in atomic units:
                           1         2         3
     Eigenvalues --   986.599034242.791834867.32399
           X            0.99984   0.01779  -0.00303
           Y           -0.01769   0.99946   0.02769
           Z            0.00352  -0.02764   0.99961
 This molecule is an asymmetric top.
 Rotational symmetry number  1.
 Warning -- assumption of classical behavior for rotation
           may cause significant error
 Rotational temperatures (Kelvin)      0.08779     0.02041     0.01779
 Rotational constants (GHZ):           1.82926     0.42537     0.37079
 Zero-point vibrational energy     699903.0 (Joules/Mol)
                                  167.28084 (Kcal/Mol)
 Warning -- explicit consideration of  21 degrees of freedom as
           vibrations may cause significant error
 Vibrational temperatures:     46.14    51.63    89.32   123.23   141.56
          (Kelvin)            147.21   155.62   204.33   278.21   311.12
                              327.71   344.16   358.64   373.91   496.02
                              536.55   573.68   633.29   658.45   728.97
                              817.33  1064.63  1118.54  1167.02  1194.68
                             1212.38  1323.83  1339.15  1359.89  1382.87
                             1387.26  1419.61  1439.97  1469.89  1498.82
                             1523.19  1612.84  1637.65  1712.85  1733.91
                             1761.00  1804.89  1867.30  1870.91  1886.86
                             1915.98  1935.67  1940.86  1966.19  1973.82
                             1996.85  2015.10  2020.01  2027.02  2047.83
                             2100.48  2114.29  2127.69  2133.39  2141.95
                             2147.19  2155.32  2167.36  2169.08  2178.88
                             4215.12  4265.65  4293.45  4302.82  4309.37
                             4325.55  4335.84  4343.36  4349.50  4354.49
                             4367.44  4417.18  4420.49  4426.67  4429.74
                             4430.20  4436.34  4448.50  5424.12

 Zero-point correction=                           0.266579 (Hartree/Particle)
 Thermal correction to Energy=                    0.281662
 Thermal correction to Enthalpy=                  0.282606
 Thermal correction to Gibbs Free Energy=         0.222666
 Sum of electronic and zero-point Energies=           -504.580869
 Sum of electronic and thermal Energies=              -504.565786
 Sum of electronic and thermal Enthalpies=            -504.564842
 Sum of electronic and thermal Free Energies=         -504.624781

                     E (Thermal)             CV                S
                      KCal/Mol        Cal/Mol-Kelvin    Cal/Mol-Kelvin
 Total                  176.746             52.909            126.154
 Electronic               0.000              0.000              1.377
 Translational            0.889              2.981             41.103
 Rotational               0.889              2.981             31.389
 Vibrational            174.968             46.948             52.285
 Vibration     1          0.594              1.983              5.697
 Vibration     2          0.594              1.982              5.474
 Vibration     3          0.597              1.972              4.390
 Vibration     4          0.601              1.959              3.757
 Vibration     5          0.604              1.950              3.486
 Vibration     6          0.604              1.947              3.410
 Vibration     7          0.606              1.943              3.302
 Vibration     8          0.615              1.911              2.777
 Vibration     9          0.635              1.849              2.195
 Vibration    10          0.645              1.816              1.990
 Vibration    11          0.651              1.799              1.896
 Vibration    12          0.657              1.781              1.809
 Vibration    13          0.662              1.764              1.736
 Vibration    14          0.668              1.746              1.663
 Vibration    15          0.723              1.586              1.190
 Vibration    16          0.744              1.528              1.068
 Vibration    17          0.765              1.473              0.967
 Vibration    18          0.800              1.383              0.826
 Vibration    19          0.816              1.344              0.773
 Vibration    20          0.862              1.235              0.642
 Vibration    21          0.924              1.100              0.508

 Optimization completed.
    -- Stationary point found.
 Normal termination of Gaussian 09 at Fri Feb  7 20:19:19 2014.

 -----------------------------------------------------------
 #P Geom=AllCheck Guess=TCheck SCRF=Check CCSD(T)/6-31+G(d')
 -----------------------------------------------------------

 Structure from the checkpoint file:  C9H18OOH_1_26_c.chk
 ---------------------
 optimization and freq
 ---------------------
 Charge =  0 Multiplicity = 2

 SCF Done:  E(UHF) =  -501.447738609     A.U. after   23 cycles
 E2 =    -0.1568763049D+01 EUMP2 =    -0.50301650165823D+03
 CCSD(T)
 CCSD(T)= -0.50318888869D+03
 503.1330562\CCSD=-503.1356035\CCSD(T)=-503.1888887\S2=0.765172\S2-1=0.
 Normal termination of Gaussian 09 at Sat Feb  8 09:07:13 2014.

 -----------------------------------------------------
 #P Geom=AllCheck Guess=TCheck SCRF=Check MP4SDQ/CBSB4
 -----------------------------------------------------

 Structure from the checkpoint file:  C9H18OOH_1_26_c.chk
 ---------------------
 optimization and freq
 ---------------------
 Charge =  0 Multiplicity = 2

 SCF Done:  E(UHF) =  -501.479023174     A.U. after   18 cycles
 E2 =    -0.1694504171D+01 EUMP2 =    -0.50317352734449D+03
 Normal termination of Gaussian 09 at Sat Feb  8 09:42:22 2014.

 ----------------------------------------------------------------------
 #P Geom=AllCheck Guess=TCheck SCRF=Check MP2/CBSB3 CBSExtrap=(NMin=10,
 MinPop)
 ----------------------------------------------------------------------

 Structure from the checkpoint file:  C9H18OOH_1_26_c.chk
 ---------------------
 optimization and freq
 ---------------------
 Charge =  0 Multiplicity = 2

                         Standard orientation:
 ---------------------------------------------------------------------
 Center     Atomic      Atomic             Coordinates (Angstroms)
 Number     Number       Type             X           Y           Z
 ---------------------------------------------------------------------
      1          6           0       -3.103660   -1.804388   -0.163508
      2          1           0       -2.749877   -2.838400   -0.231175
      3          1           0       -3.479699   -1.531563   -1.161977
      4          1           0       -3.963515   -1.776568    0.512453
      5          6           0       -2.015312   -0.876909    0.278260
      6          6           0       -0.652550   -1.070019   -0.321638
      7          1           0       -0.428407   -2.145912   -0.331149
      8          1           0       -0.695509   -0.777580   -1.385620
      9          6           0        0.515522   -0.319658    0.333659
     10          1           0        0.545648   -0.550824    1.406271
     11          1           0        0.341616    0.755743    0.245260
     12          6           0        1.865663   -0.679995   -0.298769
     13          1           0        1.845230   -0.424141   -1.367045
     14          1           0        1.996762   -1.768494   -0.251152
     15          6           0        3.094553   -0.013682    0.348713
     16          1           0        3.072070   -0.249012    1.421917
     17          6           0        4.390743   -0.597491   -0.230760
     18          1           0        4.463081   -0.395467   -1.305096
     19          1           0        5.272215   -0.161203    0.248257
     20          1           0        4.436527   -1.681743   -0.092621
     21          6           0       -2.421205    0.393349    0.939115
     22          1           0       -3.208868    0.216726    1.680789
     23          1           0       -1.588520    0.907718    1.426686
     24          6           0        3.081432    1.514666    0.201344
     25          1           0        3.969401    1.959203    0.660256
     26          1           0        3.075886    1.801708   -0.856312
     27          1           0        2.206330    1.966632    0.674351
     28          8           0       -3.090302    1.329685    0.049537
     29          8           0       -2.115630    1.762245   -0.942153
     30          1           0       -1.994023    2.682494   -0.671655
 ---------------------------------------------------------------------

 SCF Done:  E(UHF) =  -501.616538889     A.U. after   18 cycles
 E2 =    -0.1997256959D+01 EUMP2 =    -0.50361379584801D+03
 E2(CBS)=      -2.191804 CBS-Int=       0.065710 OIii=      17.378242

 The electronic state is 2-A.
 Alpha  occ. eigenvalues --  -20.62134 -20.61811 -11.28013 -11.23384 -11.22359
 Alpha  occ. eigenvalues --  -11.21694 -11.21524 -11.21326 -11.21244 -11.20877
 Alpha  occ. eigenvalues --  -11.20817  -1.46491  -1.22308  -1.10503  -1.08048
 Alpha  occ. eigenvalues --   -1.01168  -0.92707  -0.92593  -0.91556  -0.82872
 Alpha  occ. eigenvalues --   -0.76313  -0.75431  -0.70513  -0.66651  -0.65386
 Alpha  occ. eigenvalues --   -0.64052  -0.61564  -0.60412  -0.59105  -0.57948
 Alpha  occ. eigenvalues --   -0.56818  -0.55388  -0.53366  -0.52818  -0.52548
 Alpha  occ. eigenvalues --   -0.50873  -0.49857  -0.49628  -0.48300  -0.47481
 Alpha  occ. eigenvalues --   -0.45643  -0.45567  -0.44185  -0.43843  -0.32954
 Alpha virt. eigenvalues --    0.03716   0.04690   0.04837   0.05330   0.06249
 Alpha virt. eigenvalues --    0.06454   0.07069   0.07427   0.07921   0.08412
 Alpha virt. eigenvalues --    0.08512   0.09517   0.10011   0.10428   0.11177

  Beta  occ. eigenvalues --  -20.61909 -20.61686 -11.28326 -11.22360 -11.21991
  Beta  occ. eigenvalues --  -11.21550 -11.21484 -11.21332 -11.20941 -11.20877
  Beta  occ. eigenvalues --  -11.20817  -1.45996  -1.21705  -1.09624  -1.05809
  Beta  occ. eigenvalues --   -1.00176  -0.92683  -0.92434  -0.91488  -0.82324
  Beta  occ. eigenvalues --   -0.76256  -0.73383  -0.68756  -0.66340  -0.64266
  Beta  occ. eigenvalues --   -0.63206  -0.60889  -0.60214  -0.58490  -0.57487
  Beta  occ. eigenvalues --   -0.55170  -0.54636  -0.53319  -0.52601  -0.52020
  Beta  occ. eigenvalues --   -0.50752  -0.49612  -0.49341  -0.47754  -0.46992
  Beta  occ. eigenvalues --   -0.45499  -0.45446  -0.43714  -0.43616
  Beta virt. eigenvalues --    0.03736   0.04717   0.04832   0.05346   0.06256
  Beta virt. eigenvalues --    0.06444   0.06994   0.07265   0.07924   0.08421
  Beta virt. eigenvalues --    0.08513   0.09187   0.09789   0.10053   0.11179

 Mulliken atomic charges:
              1
     1  C   -0.177505
     2  H    0.061525
     3  H    0.091192
     4  H    0.083941
     5  C    0.445140
     6  C    0.119046
     7  H    0.047226
     8  H    0.055819
     9  C   -0.056079
    10  H    0.061007
    11  H   -0.065336
    12  C   -0.924112
    13  H    0.095165
    14  H    0.037342
    15  C    1.016702
    16  H    0.030040
    17  C   -0.408086
    18  H    0.052254
    19  H    0.100802
    20  H    0.056743
    21  C   -0.464404
    22  H    0.099816
    23  H    0.140917
    24  C   -0.597371
    25  H    0.087616
    26  H    0.066618
    27  H    0.071541
    28  O   -0.145015
    29  O   -0.243517
    30  H    0.260973
 Sum of Mulliken atomic charges =   0.00000

 Dipole moment (field-independent basis, Debye):
    X=              1.0815    Y=              0.1442    Z=              1.3220  Tot=              1.7141
 Quadrupole moment (field-independent basis, Debye-Ang):
   XX=            -78.3100   YY=            -67.1112   ZZ=            -72.1102
   XY=              2.1925   XZ=             -3.2924   YZ=              0.7286

 Normal termination of Gaussian 09 at Sat Feb  8 11:09:53 2014.
