 Gaussian 09, Revision C.01,

 --------------------------------------------------
 #p UB3LYP/6-311++G(d,p) guess=mix stable=(opt,xqc)
 --------------------------------------------------

 (Enter /usr/caen/gaussian-09revc/g09/l101.exe)
 --------------------------------------------
 C9H18OOH_1_26_f using cbs-qb3 to cal. energy
 --------------------------------------------
 Charge =  0 Multiplicity = 2

 SCF Done:  E(UB3LYP) =  -504.849999717     A.U. after   18 cycles
 Normal termination of Gaussian 09 at Fri Feb  7 22:10:11 2014.
 Gaussian 09:  EM64L-G09RevC.01 23-Sep-2011

 ------------------------------------------------
 #p cbs-qb3 opt=calcfc freq geom=check guess=read
 ------------------------------------------------

 ---------------------
 optimization and freq
 ---------------------
 Structure from the checkpoint file:  C9H18OOH_1_26_f.chk
 Charge =  0 Multiplicity = 2

 SCF Done:  E(UB3LYP) =  -504.841282396     A.U. after   10 cycles
 SCF Done:  E(UB3LYP) =  -504.841382345     A.U. after   12 cycles
 SCF Done:  E(UB3LYP) =  -504.841389931     A.U. after   11 cycles
 SCF Done:  E(UB3LYP) =  -504.841390990     A.U. after    9 cycles
 SCF Done:  E(UB3LYP) =  -504.841390969     A.U. after    6 cycles
 Optimization completed.
    -- Stationary point found.
 Normal termination of Gaussian 09 at Fri Feb  7 22:28:36 2014.

 ---------------------------------------------------------
 #P Geom=AllCheck Guess=TCheck SCRF=Check B3LYP/CBSB7 Freq
 ---------------------------------------------------------

 Structure from the checkpoint file:  C9H18OOH_1_26_f.chk
 ---------------------
 optimization and freq
 ---------------------
 Charge =  0 Multiplicity = 2

 SCF Done:  E(UB3LYP) =  -504.841390969     A.U. after    1 cycles

  Exact polarizability: 134.369   6.012 108.996  -3.453   0.545 100.051
 Approx polarizability: 158.869   4.935 150.006  -4.913  -3.977 152.977

                     1                      2                      3
                     A                      A                      A
 Frequencies --    15.3364                29.8977                53.1820
 Red. masses --     2.7186                 3.8960                 4.2042
 Frc consts  --     0.0004                 0.0021                 0.0070
 IR Inten    --     0.0569                 0.0382                 2.1826

                     4                      5                      6
                     A                      A                      A
 Frequencies --    77.9856                90.5674               123.1256
 Red. masses --     2.9118                 3.5815                 2.1190
 Frc consts  --     0.0104                 0.0173                 0.0189
 IR Inten    --     0.9212                 0.8692                 0.0232

                     7                      8                      9
                     A                      A                      A
 Frequencies --   180.5690               194.5579               209.7412
 Red. masses --     2.4724                 1.1624                 1.2818
 Frc consts  --     0.0475                 0.0259                 0.0332
 IR Inten    --     1.5923               109.9125                 3.6167

                    10                     11                     12
                     A                      A                      A
 Frequencies --   218.2322               224.1803               238.6643
 Red. masses --     2.0191                 1.0485                 2.0749
 Frc consts  --     0.0567                 0.0310                 0.0696
 IR Inten    --     0.5467                 0.0759                 3.6339

                    13                     14                     15
                     A                      A                      A
 Frequencies --   253.8643               258.4444               329.3159
 Red. masses --     2.6520                 1.3080                 1.7368
 Frc consts  --     0.1007                 0.0515                 0.1110
 IR Inten    --     8.2583                 0.6135                 2.4805

                    16                     17                     18
                     A                      A                      A
 Frequencies --   348.4756               390.4663               425.0386
 Red. masses --     2.5279                 2.5031                 2.4570
 Frc consts  --     0.1809                 0.2249                 0.2615
 IR Inten    --     0.7605                 4.0727                 4.1332

                    19                     20                     21
                     A                      A                      A
 Frequencies --   457.6760               503.3459               524.8234
 Red. masses --     1.9497                 2.7758                 2.1400
 Frc consts  --     0.2406                 0.4144                 0.3473
 IR Inten    --     2.6056                 4.0951                 8.8223

                    22                     23                     24
                     A                      A                      A
 Frequencies --   620.7724               756.6657               793.7460
 Red. masses --     2.4363                 1.4780                 2.5389
 Frc consts  --     0.5531                 0.4986                 0.9424
 IR Inten    --     3.3115                 5.2814                 4.9001

                    25                     26                     27
                     A                      A                      A
 Frequencies --   834.5558               856.8303               922.1975
 Red. masses --     2.6039                 3.8599                 1.7874
 Frc consts  --     1.0685                 1.6696                 0.8956
 IR Inten    --     0.1581                14.7343                 1.1864

                    28                     29                     30
                     A                      A                      A
 Frequencies --   927.2953               941.0093               946.2924
 Red. masses --     1.2574                 2.4337                 1.5961
 Frc consts  --     0.6370                 1.2697                 0.8421
 IR Inten    --     1.4043                 0.3274                 2.1451

                    31                     32                     33
                     A                      A                      A
 Frequencies --   956.1149               967.4055              1008.6749
 Red. masses --     1.5721                 1.8669                 2.4587
 Frc consts  --     0.8468                 1.0294                 1.4739
 IR Inten    --     1.8700                 0.6581                23.2700

                    34                     35                     36
                     A                      A                      A
 Frequencies --  1036.1247              1061.8647              1090.9743
 Red. masses --     3.2283                 1.5868                 2.1923
 Frc consts  --     2.0420                 1.0541                 1.5374
 IR Inten    --     2.3392                 4.7231                 3.1587

                    37                     38                     39
                     A                      A                      A
 Frequencies --  1104.3708              1131.0809              1147.4032
 Red. masses --     2.0659                 1.8921                 1.8289
 Frc consts  --     1.4845                 1.4262                 1.4186
 IR Inten    --     1.2026                 1.1726                 1.2966

                    40                     41                     42
                     A                      A                      A
 Frequencies --  1180.9998              1191.0010              1203.5576
 Red. masses --     1.8387                 1.8256                 1.6665
 Frc consts  --     1.5110                 1.5258                 1.4223
 IR Inten    --     0.8286                 4.1707                 2.0033

                    43                     44                     45
                     A                      A                      A
 Frequencies --  1260.5961              1290.3749              1307.9568
 Red. masses --     1.2968                 1.1569                 1.1870
 Frc consts  --     1.2141                 1.1350                 1.1964
 IR Inten    --     2.6587                 4.5866                 0.8500

                    46                     47                     48
                     A                      A                      A
 Frequencies --  1317.2324              1328.1669              1355.5056
 Red. masses --     1.2591                 1.2647                 1.3358
 Frc consts  --     1.2871                 1.3145                 1.4461
 IR Inten    --     0.2328                 2.2984                15.5082

                    49                     50                     51
                     A                      A                      A
 Frequencies --  1359.1306              1372.6228              1388.2821
 Red. masses --     1.1735                 1.3822                 1.2680
 Frc consts  --     1.2772                 1.5343                 1.4398
 IR Inten    --    20.3948                10.5802                 1.5113

                    52                     53                     54
                     A                      A                      A
 Frequencies --  1394.2544              1397.1582              1408.1330
 Red. masses --     1.2443                 1.4537                 1.3871
 Frc consts  --     1.4251                 1.6719                 1.6205
 IR Inten    --    19.4572                 4.0598                 3.3464

                    55                     56                     57
                     A                      A                      A
 Frequencies --  1418.2055              1424.3201              1462.5860
 Red. masses --     1.2512                 1.5221                 1.0886
 Frc consts  --     1.4827                 1.8193                 1.3720
 IR Inten    --    11.3537                 3.6568                 7.0392

                    58                     59                     60
                     A                      A                      A
 Frequencies --  1468.9040              1488.4247              1489.8354
 Red. masses --     1.0742                 1.0472                 1.0465
 Frc consts  --     1.3655                 1.3669                 1.3685
 IR Inten    --     0.5510                 0.2346                 2.5843

                    61                     62                     63
                     A                      A                      A
 Frequencies --  1491.6943              1499.4359              1502.1462
 Red. masses --     1.0815                 1.0447                 1.0524
 Frc consts  --     1.4179                 1.3838                 1.3991
 IR Inten    --     2.6329                 9.5267                 7.4009

                    64                     65                     66
                     A                      A                      A
 Frequencies --  1508.0045              1509.7495              2940.7763
 Red. masses --     1.0590                 1.0586                 1.0668
 Frc consts  --     1.4189                 1.4216                 5.4356
 IR Inten    --     8.1132                 9.6319                18.0855

                    67                     68                     69
                     A                      A                      A
 Frequencies --  2974.6390              2976.8598              2981.7674
 Red. masses --     1.0853                 1.0816                 1.0845
 Frc consts  --     5.6582                 5.6472                 5.6808
 IR Inten    --     4.1828                 2.7519                65.0988

                    70                     71                     72
                     A                      A                      A
 Frequencies --  3013.0509              3018.3084              3020.3213
 Red. masses --     1.0347                 1.0354                 1.0602
 Frc consts  --     5.5344                 5.5578                 5.6985
 IR Inten    --    30.5163                36.0317                24.2668

                    73                     74                     75
                     A                      A                      A
 Frequencies --  3023.3590              3028.4885              3068.7616
 Red. masses --     1.0515                 1.0465                 1.1065
 Frc consts  --     5.6631                 5.6551                 6.1397
 IR Inten    --    55.3899                26.6355                35.6888

                    76                     77                     78
                     A                      A                      A
 Frequencies --  3071.0808              3073.5491              3079.8905
 Red. masses --     1.0986                 1.1018                 1.1008
 Frc consts  --     6.1046                 6.1324                 6.1520
 IR Inten    --    19.2076                 1.5105                78.6884

                    79                     80                     81
                     A                      A                      A
 Frequencies --  3085.0765              3088.8025              3090.8072
 Red. masses --     1.1005                 1.1017                 1.1015
 Frc consts  --     6.1711                 6.1929                 6.1995
 IR Inten    --    41.4858                33.2212                40.5360

                    82                     83                     84
                     A                      A                      A
 Frequencies --  3101.7569              3124.7419              3774.3370
 Red. masses --     1.1016                 1.0863                 1.0688
 Frc consts  --     6.2444                 6.2494                 8.9705
 IR Inten    --    28.6402                26.9056                40.4173

 - Thermochemistry -
 -------------------
 Temperature   298.150 Kelvin.  Pressure   1.00000 Atm.
 Atom     1 has atomic number  6 and mass  12.00000

 Molecular mass:   159.13850 amu.
 Principal axes and moments of inertia in atomic units:
                           1         2         3
     Eigenvalues --   971.039294280.566434835.71567
           X            0.99984   0.01748  -0.00374
           Y           -0.01736   0.99937   0.03100
           Z            0.00428  -0.03094   0.99951
 This molecule is an asymmetric top.
 Rotational symmetry number  1.
 Warning -- assumption of classical behavior for rotation
           may cause significant error
 Rotational temperatures (Kelvin)      0.08920     0.02023     0.01791
 Rotational constants (GHZ):           1.85857     0.42161     0.37321
 Zero-point vibrational energy     698652.2 (Joules/Mol)
                                  166.98187 (Kcal/Mol)
 Warning -- explicit consideration of  22 degrees of freedom as
           vibrations may cause significant error
 Vibrational temperatures:     22.07    43.02    76.52   112.20   130.31
          (Kelvin)            177.15   259.80   279.93   301.77   313.99
                              322.55   343.38   365.25   371.84   473.81
                              501.38   561.79   611.53   658.49   724.20
                              755.10   893.15  1088.67  1142.02  1200.74
                             1232.79  1326.83  1334.17  1353.90  1361.50
                             1375.63  1391.88  1451.26  1490.75  1527.78
                             1569.67  1588.94  1627.37  1650.86  1699.19
                             1713.58  1731.65  1813.71  1856.56  1881.86
                             1895.20  1910.93  1950.27  1955.48  1974.90
                             1997.43  2006.02  2010.20  2025.99  2040.48
                             2049.28  2104.33  2113.42  2141.51  2143.54
                             2146.21  2157.35  2161.25  2169.68  2172.19
                             4231.12  4279.84  4283.03  4290.09  4335.10
                             4342.67  4345.56  4349.93  4357.31  4415.26
                             4418.59  4422.15  4431.27  4438.73  4444.09
                             4446.98  4462.73  4495.80  5430.42

 Zero-point correction=                           0.266103 (Hartree/Particle)
 Thermal correction to Energy=                    0.281174
 Thermal correction to Enthalpy=                  0.282118
 Thermal correction to Gibbs Free Energy=         0.221726
 Sum of electronic and zero-point Energies=           -504.575288
 Sum of electronic and thermal Energies=              -504.560217
 Sum of electronic and thermal Enthalpies=            -504.559273
 Sum of electronic and thermal Free Energies=         -504.619665

                     E (Thermal)             CV                S
                      KCal/Mol        Cal/Mol-Kelvin    Cal/Mol-Kelvin
 Total                  176.439             53.415            127.106
 Electronic               0.000              0.000              1.377
 Translational            0.889              2.981             41.103
 Rotational               0.889              2.981             31.375
 Vibrational            174.662             47.454             53.250
 Vibration     1          0.593              1.986              7.162
 Vibration     2          0.594              1.984              5.836
 Vibration     3          0.596              1.976              4.695
 Vibration     4          0.599              1.964              3.941
 Vibration     5          0.602              1.956              3.648
 Vibration     6          0.610              1.930              3.051
 Vibration     7          0.630              1.866              2.323
 Vibration     8          0.635              1.847              2.184
 Vibration     9          0.642              1.826              2.046
 Vibration    10          0.646              1.813              1.974
 Vibration    11          0.649              1.804              1.925
 Vibration    12          0.657              1.781              1.813
 Vibration    13          0.665              1.756              1.704
 Vibration    14          0.667              1.748              1.672
 Vibration    15          0.712              1.617              1.263
 Vibration    16          0.726              1.578              1.173
 Vibration    17          0.758              1.491              0.998
 Vibration    18          0.787              1.416              0.875
 Vibration    19          0.816              1.344              0.773
 Vibration    20          0.859              1.243              0.650
 Vibration    21          0.880              1.195              0.599
 Vibration    22          0.981              0.988              0.415

 Optimization completed.
    -- Stationary point found.
 Normal termination of Gaussian 09 at Fri Feb  7 22:38:14 2014.

 -----------------------------------------------------------
 #P Geom=AllCheck Guess=TCheck SCRF=Check CCSD(T)/6-31+G(d')
 -----------------------------------------------------------

 Structure from the checkpoint file:  C9H18OOH_1_26_f.chk
 ---------------------
 optimization and freq
 ---------------------
 Charge =  0 Multiplicity = 2

 SCF Done:  E(UHF) =  -501.444329805     A.U. after   20 cycles
 E2 =    -0.1567924972D+01 EUMP2 =    -0.50301225477753D+03
 CCSD(T)
 CCSD(T)= -0.50318428922D+03
 DQ=-503.1286436\CCSD=-503.1311692\CCSD(T)=-503.1842892\S2=0.763799\S2-
 Normal termination of Gaussian 09 at Sat Feb  8 13:17:27 2014.

 -----------------------------------------------------
 #P Geom=AllCheck Guess=TCheck SCRF=Check MP4SDQ/CBSB4
 -----------------------------------------------------

 Structure from the checkpoint file:  C9H18OOH_1_26_f.chk
 ---------------------
 optimization and freq
 ---------------------
 Charge =  0 Multiplicity = 2

 SCF Done:  E(UHF) =  -501.475824591     A.U. after   13 cycles
 E2 =    -0.1693494210D+01 EUMP2 =    -0.50316931880103D+03
 Normal termination of Gaussian 09 at Sat Feb  8 13:40:52 2014.

 ----------------------------------------------------------------------
 #P Geom=AllCheck Guess=TCheck SCRF=Check MP2/CBSB3 CBSExtrap=(NMin=10,
 MinPop)
 ----------------------------------------------------------------------

 Structure from the checkpoint file:  C9H18OOH_1_26_f.chk
 ---------------------
 optimization and freq
 ---------------------
 Charge =  0 Multiplicity = 2

                         Standard orientation:
 ---------------------------------------------------------------------
 Center     Atomic      Atomic             Coordinates (Angstroms)
 Number     Number       Type             X           Y           Z
 ---------------------------------------------------------------------
      1          6           0       -3.051415   -1.761907   -0.249370
      2          1           0       -2.683072   -2.764519   -0.481628
      3          1           0       -3.325545   -1.273287   -1.187303
      4          1           0       -3.961205   -1.868905    0.349443
      5          6           0       -1.984703   -0.943923    0.492756
      6          1           0       -1.774776   -1.444214    1.450243
      7          6           0       -0.668457   -0.904930   -0.307854
      8          1           0       -0.394194   -1.938218   -0.549419
      9          1           0       -0.841781   -0.396113   -1.260634
     10          6           0        0.519154   -0.242858    0.408298
     11          1           0        0.644864   -0.681876    1.409507
     12          1           0        0.279974    0.819542    0.580137
     13          6           0        1.802779   -0.356756   -0.347385
     14          1           0        1.756604   -0.362639   -1.434908
     15          6           0        3.138628   -0.131240    0.294090
     16          1           0        3.103577   -0.553348    1.308835
     17          6           0        4.263890   -0.837991   -0.478464
     18          1           0        4.337680   -0.445681   -1.498337
     19          1           0        5.232646   -0.687038    0.007029
     20          1           0        4.080740   -1.913358   -0.546703
     21          6           0       -2.542030    0.432402    0.882840
     22          1           0       -3.442103    0.298545    1.493811
     23          1           0       -1.823760    1.022555    1.460201
     24          6           0        3.452375    1.378178    0.445964
     25          1           0        4.408916    1.527732    0.957509
     26          1           0        3.514116    1.859348   -0.535136
     27          1           0        2.678007    1.889906    1.023202
     28          8           0       -3.027637    1.219152   -0.206790
     29          8           0       -1.882530    1.826471   -0.874767
     30          1           0       -2.090683    2.760735   -0.738639
 ---------------------------------------------------------------------

 SCF Done:  E(UHF) =  -501.612977864     A.U. after   14 cycles
 E2 =    -0.1996513690D+01 EUMP2 =    -0.50360949155413D+03
 E2(CBS)=      -2.190621 CBS-Int=       0.065655 OIii=      17.376518

 The electronic state is 2-A.
 Alpha  occ. eigenvalues --  -20.62222 -20.62174 -11.27867 -11.22754 -11.22265
 Alpha  occ. eigenvalues --  -11.21634 -11.21286 -11.21021 -11.20959 -11.20707
 Alpha  occ. eigenvalues --  -11.20702  -1.46780  -1.22885  -1.10205  -1.07377
 Alpha  occ. eigenvalues --   -1.00890  -0.92558  -0.91776  -0.91000  -0.82362
 Alpha  occ. eigenvalues --   -0.76588  -0.75486  -0.72030  -0.66736  -0.64329
 Alpha  occ. eigenvalues --   -0.63159  -0.61461  -0.60165  -0.59018  -0.57515
 Alpha  occ. eigenvalues --   -0.56949  -0.55045  -0.53353  -0.52738  -0.51897
 Alpha  occ. eigenvalues --   -0.50477  -0.50023  -0.48918  -0.48115  -0.47324
 Alpha  occ. eigenvalues --   -0.46094  -0.45741  -0.43990  -0.43006  -0.32096
 Alpha virt. eigenvalues --    0.03753   0.04626   0.04868   0.05309   0.06249
 Alpha virt. eigenvalues --    0.06413   0.06900   0.07411   0.07777   0.08366
 Alpha virt. eigenvalues --    0.08570   0.09450   0.09705   0.10038   0.11473

  Beta  occ. eigenvalues --  -20.62219 -20.62175 -11.27863 -11.22760 -11.22573
  Beta  occ. eigenvalues --  -11.21601 -11.20960 -11.20730 -11.20701 -11.20637
  Beta  occ. eigenvalues --  -11.19178  -1.46778  -1.22882  -1.08798  -1.06659
  Beta  occ. eigenvalues --   -1.00124  -0.92131  -0.91593  -0.88757  -0.81579
  Beta  occ. eigenvalues --   -0.76460  -0.73046  -0.72003  -0.66700  -0.64188
  Beta  occ. eigenvalues --   -0.62428  -0.61004  -0.59855  -0.57774  -0.57132
  Beta  occ. eigenvalues --   -0.56522  -0.54690  -0.53187  -0.52578  -0.51367
  Beta  occ. eigenvalues --   -0.50158  -0.49450  -0.48318  -0.47577  -0.46702
  Beta  occ. eigenvalues --   -0.45895  -0.45497  -0.43582  -0.42863
  Beta virt. eigenvalues --    0.03761   0.04606   0.04864   0.05313   0.06221
  Beta virt. eigenvalues --    0.06356   0.06900   0.07327   0.07763   0.08389
  Beta virt. eigenvalues --    0.08578   0.09414   0.09716   0.10050   0.11287

 Mulliken atomic charges:
              1
     1  C   -0.343196
     2  H    0.058467
     3  H    0.088364
     4  H    0.086920
     5  C    0.915663
     6  H    0.038860
     7  C   -0.308324
     8  H    0.069575
     9  H    0.067738
    10  C   -0.574264
    11  H    0.064856
    12  H   -0.012959
    13  C   -0.315916
    14  H    0.160502
    15  C    0.881163
    16  H    0.044134
    17  C   -0.365941
    18  H    0.058687
    19  H    0.090710
    20  H    0.051730
    21  C   -0.474666
    22  H    0.113345
    23  H    0.126132
    24  C   -0.634705
    25  H    0.084527
    26  H    0.061421
    27  H    0.072721
    28  O   -0.143340
    29  O   -0.249159
    30  H    0.286957
 Sum of Mulliken atomic charges =   0.00000

 Dipole moment (field-independent basis, Debye):
    X=              0.1603    Y=              0.6665    Z=              1.5599  Tot=              1.7039
 Quadrupole moment (field-independent basis, Debye-Ang):
   XX=            -75.3066   YY=            -66.8573   ZZ=            -71.4268
   XY=             -0.3335   XZ=             -3.5084   YZ=             -0.2872

 E2(CBS)/CbsB3=-2.1906209\CBS-Int/CbsB3=0.065655\OIii/CbsB3=17.3765179\
 Normal termination of Gaussian 09 at Sat Feb  8 14:43:50 2014.
