 Gaussian 09, Revision C.01,

 --------------------------------------------------
 #p UB3LYP/6-311++G(d,p) guess=mix stable=(opt,xqc)
 --------------------------------------------------

 (Enter /usr/caen/gaussian-09revc/g09/l101.exe)
 --------------------------------------------
 C9H18OOH_1_26_h using cbs-qb3 to cal. energy
 --------------------------------------------
 Charge =  0 Multiplicity = 2

 SCF Done:  E(UB3LYP) =  -504.844151397     A.U. after   17 cycles
 Normal termination of Gaussian 09 at Sun Feb  9 03:33:11 2014.
 Gaussian 09:  EM64L-G09RevC.01 23-Sep-2011

 ------------------------------------------------
 #p cbs-qb3 opt=calcfc freq geom=check guess=read
 ------------------------------------------------

 ---------------------
 optimization and freq
 ---------------------
 Structure from the checkpoint file:  C9H18OOH_1_26_h.chk
 Charge =  0 Multiplicity = 2

 SCF Done:  E(UB3LYP) =  -504.835293799     A.U. after   11 cycles
 SCF Done:  E(UB3LYP) =  -504.835416534     A.U. after   12 cycles
 SCF Done:  E(UB3LYP) =  -504.835418627     A.U. after   10 cycles
 SCF Done:  E(UB3LYP) =  -504.835418757     A.U. after    8 cycles
 Optimization completed.
    -- Stationary point found.
 Normal termination of Gaussian 09 at Sun Feb  9 06:44:57 2014.

 ---------------------------------------------------------
 #P Geom=AllCheck Guess=TCheck SCRF=Check B3LYP/CBSB7 Freq
 ---------------------------------------------------------

 Structure from the checkpoint file:  C9H18OOH_1_26_h.chk
 ---------------------
 optimization and freq
 ---------------------
 Charge =  0 Multiplicity = 2

 SCF Done:  E(UB3LYP) =  -504.835418757     A.U. after    1 cycles

  Exact polarizability: 130.941   4.732 110.821  -2.721   0.743  98.218
 Approx polarizability: 154.285   2.887 155.176  -3.669  -4.079 150.034

                     1                      2                      3
                     A                      A                      A
 Frequencies --    32.5286                36.5131                68.7248
 Red. masses --     2.8355                 4.8051                 4.4023
 Frc consts  --     0.0018                 0.0038                 0.0123
 IR Inten    --     0.2871                 0.3339                 4.2609

                     4                      5                      6
                     A                      A                      A
 Frequencies --    92.2912               104.6109               123.9099
 Red. masses --     3.0451                 3.2550                 1.1341
 Frc consts  --     0.0153                 0.0210                 0.0103
 IR Inten    --     0.0379                 0.7953                 2.0824

                     7                      8                      9
                     A                      A                      A
 Frequencies --   142.7655               189.8400               198.4449
 Red. masses --     1.6692                 1.9150                 1.3127
 Frc consts  --     0.0200                 0.0407                 0.0305
 IR Inten    --     0.2342                21.9809                84.5037

                    10                     11                     12
                     A                      A                      A
 Frequencies --   211.6496               221.3809               242.0421
 Red. masses --     1.6571                 1.7167                 2.2301
 Frc consts  --     0.0437                 0.0496                 0.0770
 IR Inten    --     6.8537                 1.3475                 1.7258

                    13                     14                     15
                     A                      A                      A
 Frequencies --   245.7629               257.3027               340.6705
 Red. masses --     1.1996                 2.7869                 2.2642
 Frc consts  --     0.0427                 0.1087                 0.1548
 IR Inten    --     0.3834                10.2254                 1.2867

                    16                     17                     18
                     A                      A                      A
 Frequencies --   367.1489               399.3091               447.4916
 Red. masses --     2.4928                 2.1688                 2.2401
 Frc consts  --     0.1980                 0.2037                 0.2643
 IR Inten    --     3.1093                 5.1144                 0.1836

                    19                     20                     21
                     A                      A                      A
 Frequencies --   454.9504               492.8845               554.8093
 Red. masses --     1.9994                 2.3437                 1.9999
 Frc consts  --     0.2438                 0.3355                 0.3627
 IR Inten    --     1.8997                10.8657                32.3114

                    22                     23                     24
                     A                      A                      A
 Frequencies --   621.7337               747.1430               784.7563
 Red. masses --     2.4744                 1.1420                 3.3090
 Frc consts  --     0.5635                 0.3756                 1.2006
 IR Inten    --     3.5918                 5.0981                 2.6728

                    25                     26                     27
                     A                      A                      A
 Frequencies --   831.9922               848.6974               865.7528
 Red. masses --     1.6792                 2.2297                 2.8060
 Frc consts  --     0.6849                 0.9462                 1.2391
 IR Inten    --     6.1700                 1.1720                11.1004

                    28                     29                     30
                     A                      A                      A
 Frequencies --   922.8657               937.5799               943.5373
 Red. masses --     1.3767                 1.7636                 2.5601
 Frc consts  --     0.6908                 0.9134                 1.3429
 IR Inten    --     0.2561                 0.9739                 1.1339

                    31                     32                     33
                     A                      A                      A
 Frequencies --   960.5596               983.5883              1003.7752
 Red. masses --     1.6279                 1.6650                 2.3489
 Frc consts  --     0.8849                 0.9490                 1.3944
 IR Inten    --     0.9784                 2.8916                 3.9903

                    34                     35                     36
                     A                      A                      A
 Frequencies --  1011.5695              1041.3842              1058.9075
 Red. masses --     2.7022                 1.6738                 2.3529
 Frc consts  --     1.6291                 1.0695                 1.5544
 IR Inten    --    17.0570                 4.8082                 0.2846

                    37                     38                     39
                     A                      A                      A
 Frequencies --  1066.3792              1125.4319              1138.5147
 Red. masses --     2.4765                 1.7886                 1.7469
 Frc consts  --     1.6592                 1.3348                 1.3341
 IR Inten    --     0.2189                 0.7372                 2.6105

                    40                     41                     42
                     A                      A                      A
 Frequencies --  1160.4978              1191.9583              1219.4822
 Red. masses --     2.1898                 2.2595                 1.5756
 Frc consts  --     1.7376                 1.8914                 1.3805
 IR Inten    --     0.8579                 1.7042                 2.5109

                    43                     44                     45
                     A                      A                      A
 Frequencies --  1269.2387              1289.2357              1304.2825
 Red. masses --     1.2475                 1.2165                 1.2061
 Frc consts  --     1.1841                 1.1914                 1.2089
 IR Inten    --     0.1032                 1.7615                 0.9146

                    46                     47                     48
                     A                      A                      A
 Frequencies --  1313.4897              1328.1152              1343.5162
 Red. masses --     1.2342                 1.1735                 1.2494
 Frc consts  --     1.2545                 1.2195                 1.3288
 IR Inten    --     0.5107                 2.7878                 1.3540

                    49                     50                     51
                     A                      A                      A
 Frequencies --  1358.5485              1367.4035              1372.4571
 Red. masses --     1.1371                 1.3626                 1.4045
 Frc consts  --     1.2365                 1.5012                 1.5588
 IR Inten    --    30.6506                 7.7026                 6.8153

                    52                     53                     54
                     A                      A                      A
 Frequencies --  1381.8349              1394.8806              1397.1377
 Red. masses --     1.4317                 1.2419                 1.3284
 Frc consts  --     1.6107                 1.4237                 1.5277
 IR Inten    --     0.9896                15.3693                 1.2324

                    55                     56                     57
                     A                      A                      A
 Frequencies --  1404.2452              1418.7490              1458.9434
 Red. masses --     1.4301                 1.2588                 1.1775
 Frc consts  --     1.6615                 1.4929                 1.4766
 IR Inten    --     3.2807                13.7707                 2.0061

                    58                     59                     60
                     A                      A                      A
 Frequencies --  1465.3033              1487.1181              1487.9433
 Red. masses --     1.0903                 1.0720                 1.0833
 Frc consts  --     1.3793                 1.3968                 1.4130
 IR Inten    --     6.1237                 1.3022                 0.5618

                    61                     62                     63
                     A                      A                      A
 Frequencies --  1494.7324              1499.2192              1499.9099
 Red. masses --     1.0474                 1.0548                 1.0575
 Frc consts  --     1.3788                 1.3968                 1.4018
 IR Inten    --     6.9242                 2.3054                 8.6528

                    64                     65                     66
                     A                      A                      A
 Frequencies --  1505.5414              1509.1814              2975.2385
 Red. masses --     1.0712                 1.0818                 1.0811
 Frc consts  --     1.4306                 1.4518                 5.6386
 IR Inten    --     2.6607                10.5455                 8.8946

                    67                     68                     69
                     A                      A                      A
 Frequencies --  2975.7141              2990.9003              2999.3215
 Red. masses --     1.0814                 1.0677                 1.0619
 Frc consts  --     5.6420                 5.6274                 5.6284
 IR Inten    --    22.2844                 5.9064                33.9354

                    70                     71                     72
                     A                      A                      A
 Frequencies --  3006.9209              3016.0867              3022.8736
 Red. masses --     1.0673                 1.0354                 1.0471
 Frc consts  --     5.6858                 5.5495                 5.6374
 IR Inten    --    44.2831                46.0259                41.2470

                    73                     74                     75
                     A                      A                      A
 Frequencies --  3027.7600              3030.3475              3057.7139
 Red. masses --     1.0526                 1.0931                 1.0894
 Frc consts  --     5.6853                 5.9139                 6.0011
 IR Inten    --    21.4173                33.3948                11.3078

                    76                     77                     78
                     A                      A                      A
 Frequencies --  3068.9044              3074.9216              3080.7140
 Red. masses --     1.1039                 1.1001                 1.1014
 Frc consts  --     6.1258                 6.1286                 6.1586
 IR Inten    --    36.9335                34.7297                52.8211

                    79                     80                     81
                     A                      A                      A
 Frequencies --  3083.9442              3091.4466              3100.9832
 Red. masses --     1.1006                 1.1021                 1.1015
 Frc consts  --     6.1673                 6.2058                 6.2405
 IR Inten    --    44.6428                38.3631                29.9207

                    82                     83                     84
                     A                      A                      A
 Frequencies --  3122.9603              3224.4180              3772.0213
 Red. masses --     1.0508                 1.1180                 1.0688
 Frc consts  --     6.0379                 6.8483                 8.9597
 IR Inten    --    16.4906                19.5646                38.3546

 - Thermochemistry -
 -------------------
 Temperature   298.150 Kelvin.  Pressure   1.00000 Atm.
 Atom     1 has atomic number  6 and mass  12.00000

 Molecular mass:   159.13850 amu.
 Principal axes and moments of inertia in atomic units:
                           1         2         3
     Eigenvalues --   974.316424069.091744633.43336
           X            0.99989   0.01423  -0.00492
           Y           -0.01409   0.99952   0.02763
           Z            0.00531  -0.02756   0.99961
 This molecule is an asymmetric top.
 Rotational symmetry number  1.
 Warning -- assumption of classical behavior for rotation
           may cause significant error
 Rotational temperatures (Kelvin)      0.08890     0.02129     0.01869
 Rotational constants (GHZ):           1.85232     0.44352     0.38950
 Zero-point vibrational energy     698411.9 (Joules/Mol)
                                  166.92445 (Kcal/Mol)
 Warning -- explicit consideration of  21 degrees of freedom as
           vibrations may cause significant error
 Vibrational temperatures:     46.80    52.53    98.88   132.79   150.51
          (Kelvin)            178.28   205.41   273.14   285.52   304.52
                              318.52   348.24   353.60   370.20   490.15
                              528.24   574.52   643.84   654.57   709.15
                              798.25   894.54  1074.97  1129.09  1197.05
                             1221.08  1245.62  1327.80  1348.97  1357.54
                             1382.03  1415.16  1444.21  1455.42  1498.32
                             1523.53  1534.28  1619.24  1638.07  1669.70
                             1714.96  1754.56  1826.15  1854.92  1876.57
                             1889.82  1910.86  1933.02  1954.65  1967.39
                             1974.66  1988.15  2006.92  2010.17  2020.39
                             2041.26  2099.09  2108.24  2139.63  2140.82
                             2150.58  2157.04  2158.03  2166.14  2171.37
                             4280.70  4281.38  4303.23  4315.35  4326.28
                             4339.47  4349.24  4356.27  4359.99  4399.36
                             4415.46  4424.12  4432.45  4437.10  4447.90
                             4461.62  4493.24  4639.21  5427.09

 Zero-point correction=                           0.266011 (Hartree/Particle)
 Thermal correction to Energy=                    0.281019
 Thermal correction to Enthalpy=                  0.281963
 Thermal correction to Gibbs Free Energy=         0.222792
 Sum of electronic and zero-point Energies=           -504.569408
 Sum of electronic and thermal Energies=              -504.554400
 Sum of electronic and thermal Enthalpies=            -504.553456
 Sum of electronic and thermal Free Energies=         -504.612626

                     E (Thermal)             CV                S
                      KCal/Mol        Cal/Mol-Kelvin    Cal/Mol-Kelvin
 Total                  176.342             53.582            124.535
 Electronic               0.000              0.000              1.377
 Translational            0.889              2.981             41.103
 Rotational               0.889              2.981             31.286
 Vibrational            174.564             47.621             50.769
 Vibration     1          0.594              1.983              5.669
 Vibration     2          0.594              1.982              5.440
 Vibration     3          0.598              1.969              4.190
 Vibration     4          0.602              1.955              3.611
 Vibration     5          0.605              1.946              3.367
 Vibration     6          0.610              1.929              3.038
 Vibration     7          0.616              1.910              2.766
 Vibration     8          0.633              1.854              2.229
 Vibration     9          0.637              1.842              2.147
 Vibration    10          0.643              1.823              2.029
 Vibration    11          0.648              1.809              1.948
 Vibration    12          0.658              1.776              1.788
 Vibration    13          0.660              1.770              1.761
 Vibration    14          0.667              1.750              1.680
 Vibration    15          0.720              1.594              1.209
 Vibration    16          0.740              1.540              1.092
 Vibration    17          0.765              1.472              0.965
 Vibration    18          0.807              1.366              0.803
 Vibration    19          0.813              1.350              0.781
 Vibration    20          0.849              1.266              0.676
 Vibration    21          0.910              1.129              0.534

 Optimization completed.
    -- Stationary point found.
 Normal termination of Gaussian 09 at Sun Feb  9 07:16:34 2014.

 -----------------------------------------------------------
 #P Geom=AllCheck Guess=TCheck SCRF=Check CCSD(T)/6-31+G(d')
 -----------------------------------------------------------

 Structure from the checkpoint file:  C9H18OOH_1_26_h.chk
 ---------------------
 optimization and freq
 ---------------------
 Charge =  0 Multiplicity = 2

 SCF Done:  E(UHF) =  -501.440469723     A.U. after   16 cycles
 E2 =    -0.1568674037D+01 EUMP2 =    -0.50300914376024D+03
 CCSD(T)
 CCSD(T)= -0.50318053542D+03
 -503.1249309\CCSD=-503.1273818\CCSD(T)=-503.1805354\S2=0.763044\S2-1=0
 Normal termination of Gaussian 09 at Sun Feb  9 15:57:18 2014.

 -----------------------------------------------------
 #P Geom=AllCheck Guess=TCheck SCRF=Check MP4SDQ/CBSB4
 -----------------------------------------------------

 Structure from the checkpoint file:  C9H18OOH_1_26_h.chk
 ---------------------
 optimization and freq
 ---------------------
 Charge =  0 Multiplicity = 2

 SCF Done:  E(UHF) =  -501.472079779     A.U. after   13 cycles
 E2 =    -0.1694157258D+01 EUMP2 =    -0.50316623703677D+03
 Normal termination of Gaussian 09 at Sun Feb  9 16:21:13 2014.

 ----------------------------------------------------------------------
 #P Geom=AllCheck Guess=TCheck SCRF=Check MP2/CBSB3 CBSExtrap=(NMin=10,
 MinPop)
 ----------------------------------------------------------------------

 Structure from the checkpoint file:  C9H18OOH_1_26_h.chk
 ---------------------
 optimization and freq
 ---------------------
 Charge =  0 Multiplicity = 2

                         Standard orientation:
 ---------------------------------------------------------------------
 Center     Atomic      Atomic             Coordinates (Angstroms)
 Number     Number       Type             X           Y           Z
 ---------------------------------------------------------------------
      1          6           0       -3.127145   -1.643973   -0.287777
      2          1           0       -2.840836   -2.669712   -0.534755
      3          1           0       -3.352904   -1.119172   -1.219109
      4          1           0       -4.047603   -1.685872    0.302840
      5          6           0       -2.003259   -0.928590    0.475341
      6          1           0       -1.844694   -1.457303    1.427475
      7          6           0       -0.678802   -0.984394   -0.311528
      8          1           0       -0.491511   -2.034988   -0.567372
      9          1           0       -0.803399   -0.452707   -1.259905
     10          6           0        0.547108   -0.430124    0.422913
     11          1           0        0.641257   -0.917274    1.403312
     12          1           0        0.411781    0.637664    0.616067
     13          6           0        1.848733   -0.631035   -0.361736
     14          1           0        1.754800   -0.158551   -1.348771
     15          1           0        1.997647   -1.701555   -0.548933
     16          6           0        3.101970   -0.069381    0.336849
     17          1           0        3.165434   -0.522081    1.337095
     18          6           0        4.384900   -0.490654   -0.424284
     19          1           0        4.377252   -0.093901   -1.443804
     20          1           0        5.281952   -0.115902    0.075088
     21          1           0        4.458035   -1.581482   -0.483336
     22          6           0       -2.447230    0.483927    0.880540
     23          1           0       -3.361343    0.418190    1.481761
     24          1           0       -1.687321    1.003444    1.472064
     25          6           0        3.045065    1.415585    0.497073
     26          1           0        3.638212    1.916718    1.253425
     27          1           0        2.556915    2.032380   -0.250290
     28          8           0       -2.854832    1.323595   -0.202561
     29          8           0       -1.658860    1.849227   -0.849138
     30          1           0       -1.772185    2.791358   -0.663622
 ---------------------------------------------------------------------

 SCF Done:  E(UHF) =  -501.609117411     A.U. after   14 cycles
 E2 =    -0.1997335762D+01 EUMP2 =    -0.50360645317307D+03
 E2(CBS)=      -2.190933 CBS-Int=       0.065580 OIii=      17.368639

 The electronic state is 2-A.
 Alpha  occ. eigenvalues --  -20.62139 -20.62086 -11.27754 -11.22653 -11.22430
 Alpha  occ. eigenvalues --  -11.22269 -11.21162 -11.21057 -11.20853 -11.20793
 Alpha  occ. eigenvalues --  -11.20639  -1.46697  -1.22769  -1.10003  -1.07410
 Alpha  occ. eigenvalues --   -1.00606  -0.92695  -0.91706  -0.90895  -0.82053
 Alpha  occ. eigenvalues --   -0.76512  -0.75914  -0.71892  -0.66589  -0.64854
 Alpha  occ. eigenvalues --   -0.63961  -0.61735  -0.59909  -0.58620  -0.57500
 Alpha  occ. eigenvalues --   -0.56951  -0.54797  -0.53718  -0.52236  -0.52162
 Alpha  occ. eigenvalues --   -0.50285  -0.49311  -0.48901  -0.47993  -0.46761
 Alpha  occ. eigenvalues --   -0.46035  -0.45231  -0.43131  -0.42901  -0.34522
 Alpha virt. eigenvalues --    0.03866   0.04649   0.04930   0.05316   0.06255
 Alpha virt. eigenvalues --    0.06385   0.06955   0.07398   0.07844   0.08389
 Alpha virt. eigenvalues --    0.08700   0.09452   0.09998   0.10235   0.11065

  Beta  occ. eigenvalues --  -20.62140 -20.62086 -11.27754 -11.22733 -11.22653
  Beta  occ. eigenvalues --  -11.21109 -11.20849 -11.20807 -11.20787 -11.20639
  Beta  occ. eigenvalues --  -11.19877  -1.46698  -1.22770  -1.09422  -1.06722
  Beta  occ. eigenvalues --   -0.99983  -0.91673  -0.90951  -0.87279  -0.81449
  Beta  occ. eigenvalues --   -0.76415  -0.74453  -0.71888  -0.66585  -0.64589
  Beta  occ. eigenvalues --   -0.63790  -0.61481  -0.59562  -0.57872  -0.57363
  Beta  occ. eigenvalues --   -0.56584  -0.54342  -0.53040  -0.52127  -0.51637
  Beta  occ. eigenvalues --   -0.50145  -0.49030  -0.48422  -0.47693  -0.46225
  Beta  occ. eigenvalues --   -0.45775  -0.45104  -0.43004  -0.42707
  Beta virt. eigenvalues --    0.03897   0.04599   0.04843   0.05285   0.06199
  Beta virt. eigenvalues --    0.06354   0.06959   0.07391   0.07839   0.08414
  Beta virt. eigenvalues --    0.08621   0.09397   0.09912   0.10110   0.10916

 Mulliken atomic charges:
              1
     1  C   -0.342879
     2  H    0.053936
     3  H    0.089803
     4  H    0.087953
     5  C    1.055496
     6  H    0.040850
     7  C   -0.457865
     8  H    0.079432
     9  H    0.060998
    10  C    0.074853
    11  H    0.054112
    12  H   -0.003665
    13  C   -1.014580
    14  H    0.099535
    15  H    0.033874
    16  C    1.131954
    17  H    0.044423
    18  C   -0.440717
    19  H    0.059304
    20  H    0.104158
    21  H    0.052424
    22  C   -0.510146
    23  H    0.108764
    24  H    0.130557
    25  C   -0.686504
    26  H    0.086391
    27  H    0.116464
    28  O   -0.145668
    29  O   -0.247412
    30  H    0.284157
 Sum of Mulliken atomic charges =   0.00000

 Dipole moment (field-independent basis, Debye):
    X=              0.3869    Y=              0.3256    Z=              1.4997  Tot=              1.5826
 Quadrupole moment (field-independent basis, Debye-Ang):
   XX=            -75.5682   YY=            -66.1012   ZZ=            -72.1010
   XY=             -0.0851   XZ=             -3.1994   YZ=             -0.0171

 Normal termination of Gaussian 09 at Sun Feb  9 17:18:51 2014.
