 Gaussian 09, Revision C.01,

 --------------------------------------------------
 #p UB3LYP/6-311++G(d,p) guess=mix stable=(opt,xqc)
 --------------------------------------------------

 (Enter /usr/caen/gaussian-09revc/g09/l101.exe)
 ------------------------------------
 TS_1_1d using cbs-qb3 to cal. energy
 ------------------------------------
 Charge =  0 Multiplicity = 2

 SCF Done:  E(UB3LYP) =  -504.838761247     A.U. after   21 cycles
 Normal termination of Gaussian 09 at Sat Feb 15 14:39:47 2014.
 Gaussian 09:  EM64L-G09RevC.01 23-Sep-2011

 -----------------------------------------------------
 #p cbs-qb3 opt=(TS,calcfc) freq geom=check guess=read
 -----------------------------------------------------

 ---------------------
 optimization and freq
 ---------------------
 Structure from the checkpoint file:  TS_1_1d.chk
 Charge =  0 Multiplicity = 2

 SCF Done:  E(UB3LYP) =  -504.831666712     A.U. after   13 cycles
 SCF Done:  E(UB3LYP) =  -504.831715236     A.U. after   14 cycles
 SCF Done:  E(UB3LYP) =  -504.831714797     A.U. after   10 cycles
 Optimization completed.
    -- Stationary point found.
 Normal termination of Gaussian 09 at Sat Feb 15 14:52:19 2014.

 ---------------------------------------------------------
 #P Geom=AllCheck Guess=TCheck SCRF=Check B3LYP/CBSB7 Freq
 ---------------------------------------------------------

 Structure from the checkpoint file:  TS_1_1d.chk
 ---------------------
 optimization and freq
 ---------------------
 Charge =  0 Multiplicity = 2

 SCF Done:  E(UB3LYP) =  -504.831714797     A.U. after    1 cycles

  Exact polarizability: 141.482  -4.062 110.802  -4.196   0.460 102.625
 Approx polarizability: 170.650 -12.515 172.515  -5.018  -8.430 155.320

 ******    1 imaginary frequencies (negative Signs) ******

                     1                      2                      3
                     A                      A                      A
 Frequencies -- -1684.7732                26.8853                41.7739
 Red. masses --     1.1081                 2.7814                 3.8617
 Frc consts  --     1.8531                 0.0012                 0.0040
 IR Inten    --   454.0785                 0.4397                 0.4878

                     4                      5                      6
                     A                      A                      A
 Frequencies --    84.1647               103.4831               117.5323
 Red. masses --     3.4651                 3.0208                 2.0874
 Frc consts  --     0.0145                 0.0191                 0.0170
 IR Inten    --     1.0765                 0.4243                 0.4780

                     7                      8                      9
                     A                      A                      A
 Frequencies --   161.1929               217.8546               222.5759
 Red. masses --     2.9106                 1.1935                 1.0641
 Frc consts  --     0.0446                 0.0334                 0.0311
 IR Inten    --     1.4824                 0.0278                 0.0601

                    10                     11                     12
                     A                      A                      A
 Frequencies --   230.4533               248.5657               259.0065
 Red. masses --     2.4146                 2.2080                 1.2374
 Frc consts  --     0.0756                 0.0804                 0.0489
 IR Inten    --     0.7342                 0.7714                 0.1835

                    13                     14                     15
                     A                      A                      A
 Frequencies --   303.9575               373.4658               390.1983
 Red. masses --     3.5920                 2.7898                 2.2961
 Frc consts  --     0.1955                 0.2293                 0.2060
 IR Inten    --     2.4309                 0.5031                 0.6086

                    16                     17                     18
                     A                      A                      A
 Frequencies --   427.9609               463.8271               480.8963
 Red. masses --     2.1235                 2.1955                 3.5369
 Frc consts  --     0.2291                 0.2783                 0.4819
 IR Inten    --     0.7977                 2.0207                 1.1553

                    19                     20                     21
                     A                      A                      A
 Frequencies --   496.9686               580.5286               681.1710
 Red. masses --     2.8680                 3.7056                 2.4964
 Frc consts  --     0.4173                 0.7358                 0.6825
 IR Inten    --     0.7294                 1.0134                 4.9045

                    22                     23                     24
                     A                      A                      A
 Frequencies --   734.2558               789.6701               831.1731
 Red. masses --     1.1508                 2.4693                 2.3258
 Frc consts  --     0.3656                 0.9072                 0.9467
 IR Inten    --     8.8298                 1.9250                 3.8996

                    25                     26                     27
                     A                      A                      A
 Frequencies --   836.5699               903.8590               928.1359
 Red. masses --     1.6140                 3.4570                 1.4612
 Frc consts  --     0.6655                 1.6640                 0.7416
 IR Inten    --     0.7656                20.2793                 4.0643

                    28                     29                     30
                     A                      A                      A
 Frequencies --   932.6466               947.8786               963.3324
 Red. masses --     1.5621                 1.7055                 1.4757
 Frc consts  --     0.8006                 0.9028                 0.8068
 IR Inten    --     1.6420                 5.1994                 0.2820

                    31                     32                     33
                     A                      A                      A
 Frequencies --   966.9419               992.5295              1004.8056
 Red. masses --     1.9952                 1.6101                 2.8582
 Frc consts  --     1.0991                 0.9345                 1.7003
 IR Inten    --    11.1514                 3.6517                 2.5105

                    34                     35                     36
                     A                      A                      A
 Frequencies --  1033.5807              1051.4756              1072.7224
 Red. masses --     3.2348                 2.1105                 1.9390
 Frc consts  --     2.0360                 1.3748                 1.3146
 IR Inten    --     0.9084                 5.4797                 4.2593

                    37                     38                     39
                     A                      A                      A
 Frequencies --  1100.5195              1138.4915              1154.0661
 Red. masses --     1.8903                 1.6526                 1.4456
 Frc consts  --     1.3489                 1.2620                 1.1344
 IR Inten    --     1.6116                 0.8555                 2.2292

                    40                     41                     42
                     A                      A                      A
 Frequencies --  1171.8908              1188.3067              1193.5456
 Red. masses --     2.1936                 1.5454                 1.7420
 Frc consts  --     1.7750                 1.2857                 1.4621
 IR Inten    --     0.1995                 4.7651                 8.2189

                    43                     44                     45
                     A                      A                      A
 Frequencies --  1231.4426              1252.4990              1265.1169
 Red. masses --     1.5246                 1.3942                 1.2930
 Frc consts  --     1.3621                 1.2886                 1.2193
 IR Inten    --     1.7612                 9.8403                12.6116

                    46                     47                     48
                     A                      A                      A
 Frequencies --  1285.8692              1315.5349              1322.1435
 Red. masses --     1.2188                 1.2087                 1.2329
 Frc consts  --     1.1874                 1.2324                 1.2698
 IR Inten    --     1.9664                 1.2162                 0.4615

                    49                     50                     51
                     A                      A                      A
 Frequencies --  1352.0506              1370.7676              1371.8639
 Red. masses --     1.3760                 1.2790                 1.3027
 Frc consts  --     1.4820                 1.4159                 1.4445
 IR Inten    --     4.7166                 4.4345                 3.9658

                    52                     53                     54
                     A                      A                      A
 Frequencies --  1386.4700              1400.6014              1405.7373
 Red. masses --     1.5151                 1.4823                 1.3391
 Frc consts  --     1.7160                 1.7132                 1.5591
 IR Inten    --     4.4610                 3.0507                 7.2192

                    55                     56                     57
                     A                      A                      A
 Frequencies --  1415.0072              1424.3142              1468.2202
 Red. masses --     1.2384                 1.2361                 1.0815
 Frc consts  --     1.4609                 1.4775                 1.3736
 IR Inten    --     7.1820                 6.3985                 0.4061

                    58                     59                     60
                     A                      A                      A
 Frequencies --  1476.0264              1488.0233              1492.0888
 Red. masses --     1.0808                 1.0685                 1.0527
 Frc consts  --     1.3874                 1.3940                 1.3809
 IR Inten    --     3.6259                 1.4700                 0.8717

                    61                     62                     63
                     A                      A                      A
 Frequencies --  1499.0096              1500.4486              1504.4385
 Red. masses --     1.0638                 1.0465                 1.0473
 Frc consts  --     1.4084                 1.3881                 1.3966
 IR Inten    --     3.9194                 6.3034                 7.5625

                    64                     65                     66
                     A                      A                      A
 Frequencies --  1507.9455              1513.2686              1573.6566
 Red. masses --     1.0539                 1.0497                 1.0564
 Frc consts  --     1.4120                 1.4163                 1.5413
 IR Inten    --     5.6326                14.7467                17.9804

                    67                     68                     69
                     A                      A                      A
 Frequencies --  2952.8720              2971.5669              2984.5378
 Red. masses --     1.0717                 1.0816                 1.0821
 Frc consts  --     5.5055                 5.6270                 5.6792
 IR Inten    --    14.4248                23.5900                15.7880

                    70                     71                     72
                     A                      A                      A
 Frequencies --  3001.7139              3015.2495              3021.0299
 Red. masses --     1.0591                 1.0360                 1.0378
 Frc consts  --     5.6222                 5.5495                 5.5806
 IR Inten    --    24.9015                34.1627                22.4213

                    73                     74                     75
                     A                      A                      A
 Frequencies --  3028.3442              3029.2417              3033.0224
 Red. masses --     1.0578                 1.0645                 1.0640
 Frc consts  --     5.7158                 5.7550                 5.7667
 IR Inten    --    31.5170                 9.4055                27.8257

                    76                     77                     78
                     A                      A                      A
 Frequencies --  3047.9868              3075.0294              3080.9701
 Red. masses --     1.0954                 1.1009                 1.0940
 Frc consts  --     5.9957                 6.1334                 6.1185
 IR Inten    --    36.9751                 8.0369                28.7780

                    79                     80                     81
                     A                      A                      A
 Frequencies --  3081.5032              3084.9421              3090.9150
 Red. masses --     1.0942                 1.1012                 1.1008
 Frc consts  --     6.1214                 6.1748                 6.1965
 IR Inten    --    42.1288                58.6079                20.7866

                    82                     83                     84
                     A                      A                      A
 Frequencies --  3092.0957              3096.9444              3103.7941
 Red. masses --     1.0996                 1.1053                 1.1022
 Frc consts  --     6.1942                 6.2460                 6.2559
 IR Inten    --    59.8981                28.1545                17.8019

 - Thermochemistry -
 -------------------
 Temperature   298.150 Kelvin.  Pressure   1.00000 Atm.
 Atom     1 has atomic number  6 and mass  12.00000

 Molecular mass:   159.13850 amu.
 Principal axes and moments of inertia in atomic units:
                           1         2         3
     Eigenvalues --   901.574264138.899944400.48887
           X            0.99980   0.01964  -0.00415
           Y           -0.01919   0.99581   0.08941
           Z            0.00589  -0.08932   0.99599
 This molecule is an asymmetric top.
 Rotational symmetry number  1.
 Warning -- assumption of classical behavior for rotation
           may cause significant error
 Rotational temperatures (Kelvin)      0.09607     0.02093     0.01968
 Rotational constants (GHZ):           2.00177     0.43604     0.41012
    1 imaginary frequencies ignored.
 Zero-point vibrational energy     690623.1 (Joules/Mol)
                                  165.06288 (Kcal/Mol)
 Warning -- explicit consideration of  19 degrees of freedom as
           vibrations may cause significant error
 Vibrational temperatures:     38.68    60.10   121.09   148.89   169.10
          (Kelvin)            231.92   313.44   320.24   331.57   357.63
                              372.65   437.33   537.33   561.41   615.74
                              667.34   691.90   715.03   835.25   980.05
                             1056.43  1136.16  1195.87  1203.64  1300.45
                             1335.38  1341.87  1363.78  1386.02  1391.21
                             1428.03  1445.69  1487.09  1512.84  1543.41
                             1583.40  1638.03  1660.44  1686.09  1709.71
                             1717.24  1771.77  1802.06  1820.22  1850.08
                             1892.76  1902.27  1945.30  1972.23  1973.80
                             1994.82  2015.15  2022.54  2035.88  2049.27
                             2112.44  2123.67  2140.93  2146.78  2156.74
                             2158.81  2164.55  2169.59  2177.25  2264.14
                             4248.52  4275.42  4294.08  4318.79  4338.27
                             4346.58  4357.11  4358.40  4363.84  4385.37
                             4424.28  4432.82  4433.59  4438.54  4447.13
                             4448.83  4455.81  4465.66

 Zero-point correction=                           0.263044 (Hartree/Particle)
 Thermal correction to Energy=                    0.276399
 Thermal correction to Enthalpy=                  0.277343
 Thermal correction to Gibbs Free Energy=         0.221790
 Sum of electronic and zero-point Energies=           -504.568670
 Sum of electronic and thermal Energies=              -504.555316
 Sum of electronic and thermal Enthalpies=            -504.554372
 Sum of electronic and thermal Free Energies=         -504.609925

                     E (Thermal)             CV                S
                      KCal/Mol        Cal/Mol-Kelvin    Cal/Mol-Kelvin
 Total                  173.443             49.531            116.920
 Electronic               0.000              0.000              1.377
 Translational            0.889              2.981             41.103
 Rotational               0.889              2.981             31.174
 Vibrational            171.665             43.569             43.266
 Vibration     1          0.593              1.984              6.047
 Vibration     2          0.594              1.980              5.173
 Vibration     3          0.601              1.960              3.791
 Vibration     4          0.605              1.946              3.388
 Vibration     5          0.608              1.935              3.141
 Vibration     6          0.622              1.890              2.536
 Vibration     7          0.646              1.814              1.977
 Vibration     8          0.648              1.807              1.938
 Vibration     9          0.652              1.794              1.875
 Vibration    10          0.662              1.765              1.741
 Vibration    11          0.668              1.748              1.668
 Vibration    12          0.695              1.666              1.395
 Vibration    13          0.745              1.527              1.066
 Vibration    14          0.758              1.491              0.999
 Vibration    15          0.789              1.409              0.865
 Vibration    16          0.821              1.330              0.755
 Vibration    17          0.837              1.292              0.708
 Vibration    18          0.852              1.257              0.666
 Vibration    19          0.937              1.073              0.484

 Optimization completed.
    -- Stationary point found.
 Normal termination of Gaussian 09 at Sat Feb 15 15:01:43 2014.

 -----------------------------------------------------------
 #P Geom=AllCheck Guess=TCheck SCRF=Check CCSD(T)/6-31+G(d')
 -----------------------------------------------------------

 Structure from the checkpoint file:  TS_1_1d.chk
 ---------------------
 optimization and freq
 ---------------------
 Charge =  0 Multiplicity = 2

 SCF Done:  E(UHF) =  -501.408053205     A.U. after   22 cycles
 E2 =    -0.1585005205D+01 EUMP2 =    -0.50299305840967D+03
 CCSD(T)
 CCSD(T)= -0.50316828757D+03
 1078009\CCSD=-503.1112588\CCSD(T)=-503.1682876\S2=0.799627\S2-1=0.7698
 Normal termination of Gaussian 09 at Sun Feb 16 03:03:44 2014.

 -----------------------------------------------------
 #P Geom=AllCheck Guess=TCheck SCRF=Check MP4SDQ/CBSB4
 -----------------------------------------------------

 Structure from the checkpoint file:  TS_1_1d.chk
 ---------------------
 optimization and freq
 ---------------------
 Charge =  0 Multiplicity = 2

 SCF Done:  E(UHF) =  -501.437915360     A.U. after   20 cycles
 E2 =    -0.1712174123D+01 EUMP2 =    -0.50315008948344D+03
 Normal termination of Gaussian 09 at Sun Feb 16 03:27:30 2014.

 ----------------------------------------------------------------------
 #P Geom=AllCheck Guess=TCheck SCRF=Check MP2/CBSB3 CBSExtrap=(NMin=10,
 MinPop)
 ----------------------------------------------------------------------

 Structure from the checkpoint file:  TS_1_1d.chk
 ---------------------
 optimization and freq
 ---------------------
 Charge =  0 Multiplicity = 2

                         Standard orientation:
 ---------------------------------------------------------------------
 Center     Atomic      Atomic             Coordinates (Angstroms)
 Number     Number       Type             X           Y           Z
 ---------------------------------------------------------------------
      1          6           0       -3.230247   -1.559042   -0.157901
      2          1           0       -2.911771   -2.587354   -0.346729
      3          1           0       -3.498308   -1.102932   -1.113750
      4          1           0       -4.130585   -1.594447    0.462070
      5          6           0       -2.117172   -0.755300    0.526400
      6          1           0       -1.897173   -1.200377    1.508638
      7          6           0       -0.838418   -0.724520   -0.295216
      8          1           0       -0.824455   -1.415014   -1.140979
      9          1           0       -1.023667    0.496094   -0.896158
     10          6           0        0.482367   -0.596617    0.428744
     11          1           0        0.672642   -1.532041    0.980225
     12          1           0        0.403137    0.188206    1.188689
     13          6           0        1.668008   -0.314346   -0.504373
     14          1           0        1.517115    0.656969   -0.992326
     15          1           0        1.666112   -1.063103   -1.306243
     16          6           0        3.051184   -0.326076    0.173148
     17          1           0        3.162966   -1.293048    0.683453
     18          6           0        4.162690   -0.222100   -0.880521
     19          1           0        4.094842    0.725201   -1.426251
     20          1           0        5.152853   -0.268218   -0.418108
     21          1           0        4.096530   -1.032830   -1.612068
     22          6           0       -2.586996    0.697599    0.817923
     23          1           0       -3.575782    0.708068    1.283160
     24          1           0       -1.871909    1.227266    1.455394
     25          6           0        3.199563    0.782742    1.225057
     26          1           0        4.194354    0.758133    1.679032
     27          1           0        3.066382    1.770039    0.769432
     28          1           0        2.469223    0.686609    2.032117
     29          8           0       -2.741816    1.399471   -0.407262
     30          8           0       -1.446730    1.597871   -0.941384
 ---------------------------------------------------------------------

 SCF Done:  E(UHF) =  -501.575848462     A.U. after   19 cycles
 E2 =    -0.2015535001D+01 EUMP2 =    -0.50359138346278D+03
 E2(CBS)=      -2.213242 CBS-Int=       0.066080 OIii=      17.336290

 The electronic state is 2-A.
 Alpha  occ. eigenvalues --  -20.62317 -20.61092 -11.28378 -11.25955 -11.24532
 Alpha  occ. eigenvalues --  -11.23377 -11.22975 -11.22318 -11.22105 -11.21240
 Alpha  occ. eigenvalues --  -11.21213  -1.48101  -1.20400  -1.12471  -1.08771
 Alpha  occ. eigenvalues --   -1.02108  -0.93721  -0.93082  -0.91543  -0.83831
 Alpha  occ. eigenvalues --   -0.80019  -0.76799  -0.72600  -0.67401  -0.64626
 Alpha  occ. eigenvalues --   -0.63350  -0.62471  -0.60816  -0.60476  -0.59310
 Alpha  occ. eigenvalues --   -0.58102  -0.54775  -0.54478  -0.53610  -0.52395
 Alpha  occ. eigenvalues --   -0.52166  -0.51723  -0.50081  -0.49057  -0.48511
 Alpha  occ. eigenvalues --   -0.46310  -0.46050  -0.44945  -0.43916  -0.37274
 Alpha virt. eigenvalues --    0.03523   0.04365   0.04586   0.05358   0.06061
 Alpha virt. eigenvalues --    0.06223   0.06824   0.07861   0.08064   0.08239
 Alpha virt. eigenvalues --    0.08538   0.09357   0.09785   0.10625   0.10961

  Beta  occ. eigenvalues --  -20.61152 -20.59823 -11.28280 -11.24710 -11.24068
  Beta  occ. eigenvalues --  -11.23539 -11.22981 -11.22287 -11.22088 -11.21240
  Beta  occ. eigenvalues --  -11.21213  -1.45381  -1.15888  -1.10865  -1.08161
  Beta  occ. eigenvalues --   -1.01623  -0.93101  -0.92823  -0.89991  -0.82943
  Beta  occ. eigenvalues --   -0.77326  -0.76549  -0.68424  -0.67054  -0.64266
  Beta  occ. eigenvalues --   -0.62195  -0.61219  -0.60004  -0.59443  -0.57909
  Beta  occ. eigenvalues --   -0.56823  -0.54514  -0.53578  -0.52167  -0.51666
  Beta  occ. eigenvalues --   -0.50922  -0.49852  -0.48868  -0.48070  -0.46558
  Beta  occ. eigenvalues --   -0.46191  -0.45924  -0.44628  -0.41551
  Beta virt. eigenvalues --    0.03470   0.04354   0.04530   0.05369   0.06060
  Beta virt. eigenvalues --    0.06111   0.06734   0.07050   0.07924   0.08091
  Beta virt. eigenvalues --    0.08256   0.08816   0.09544   0.09801   0.10815

 Mulliken atomic charges:
              1
     1  C   -0.373258
     2  H    0.049099
     3  H    0.090863
     4  H    0.090672
     5  C    0.978990
     6  H    0.066380
     7  C   -0.797618
     8  H    0.192667
     9  H    0.422770
    10  C   -0.126342
    11  H    0.052014
    12  H    0.033905
    13  C   -0.643814
    14  H    0.077480
    15  H    0.030149
    16  C    0.994034
    17  H    0.035161
    18  C   -0.403037
    19  H    0.058857
    20  H    0.099002
    21  H    0.054997
    22  C   -0.431093
    23  H    0.104147
    24  H    0.116836
    25  C   -0.604786
    26  H    0.084573
    27  H    0.071860
    28  H    0.064982
    29  O   -0.097222
    30  O   -0.292267
 Sum of Mulliken atomic charges =   0.00000

 Dipole moment (field-independent basis, Debye):
    X=              1.0501    Y=             -3.0972    Z=              2.0805  Tot=              3.8761
 Quadrupole moment (field-independent basis, Debye-Ang):
   XX=            -72.8172   YY=            -76.0790   ZZ=            -71.9725
   XY=              5.5236   XZ=             -5.2083   YZ=              3.5022

    1 imaginary frequencies ignored.
 Normal termination of Gaussian 09 at Sun Feb 16 04:28:27 2014.
