 Gaussian 09, Revision C.01,
 Gaussian 09:  EM64L-G09RevC.01 23-Sep-2011

 -------------------------------
 #p cbs-qb3 opt=(TS,calcfc) freq
 -------------------------------

 (Enter /usr/caen/gaussian-09revc/g09/l101.exe)
 ------------------------------------
 TS_1_1c using cbs-qb3 to cal. energy
 ------------------------------------
 Charge =  0 Multiplicity = 2

 SCF Done:  E(UB3LYP) =  -504.816500928     A.U. after   22 cycles
 SCF Done:  E(UB3LYP) =  -504.816536157     A.U. after   16 cycles
 SCF Done:  E(UB3LYP) =  -504.816534390     A.U. after   15 cycles
 SCF Done:  E(UB3LYP) =  -504.816538066     A.U. after   14 cycles
 SCF Done:  E(UB3LYP) =  -504.816538236     A.U. after   13 cycles
 SCF Done:  E(UB3LYP) =  -504.816538221     A.U. after   11 cycles
 Optimization completed on the basis of negligible forces.
    -- Stationary point found.
 Normal termination of Gaussian 09 at Mon Feb 17 02:05:06 2014.

 ---------------------------------------------------------
 #P Geom=AllCheck Guess=TCheck SCRF=Check B3LYP/CBSB7 Freq
 ---------------------------------------------------------

 Structure from the checkpoint file:  TS_1_1c.chk
 ------------------------------------
 TS_1_1c using cbs-qb3 to cal. energy
 ------------------------------------
 Charge =  0 Multiplicity = 2

 SCF Done:  E(UB3LYP) =  -504.816538221     A.U. after    1 cycles

  Exact polarizability: 134.498   3.107 120.833  -0.833   2.722  99.960
 Approx polarizability: 158.190  10.229 177.148  -2.277  12.006 162.458

 ******    1 imaginary frequencies (negative Signs) ******

                     1                      2                      3
                     A                      A                      A
 Frequencies -- -2078.0091                18.6285                50.8868
 Red. masses --     1.1055                 2.7705                 3.1035
 Frc consts  --     2.8126                 0.0006                 0.0047
 IR Inten    --   849.6367                 0.7873                 0.0659

                     4                      5                      6
                     A                      A                      A
 Frequencies --    60.0649               100.7583               121.2115
 Red. masses --     4.8945                 1.7759                 2.4764
 Frc consts  --     0.0104                 0.0106                 0.0214
 IR Inten    --     2.7867                 0.0643                 0.6289

                     7                      8                      9
                     A                      A                      A
 Frequencies --   130.5427               213.6534               221.4743
 Red. masses --     3.2245                 1.7287                 2.0859
 Frc consts  --     0.0324                 0.0465                 0.0603
 IR Inten    --     1.7222                 0.6756                 0.5846

                    10                     11                     12
                     A                      A                      A
 Frequencies --   225.0129               239.4461               253.0695
 Red. masses --     1.0620                 1.7071                 1.2260
 Frc consts  --     0.0317                 0.0577                 0.0463
 IR Inten    --     0.0190                 0.2670                 0.1461

                    13                     14                     15
                     A                      A                      A
 Frequencies --   272.6174               314.2298               358.7444
 Red. masses --     3.5581                 2.9725                 2.5187
 Frc consts  --     0.1558                 0.1729                 0.1910
 IR Inten    --     1.7335                 0.0476                 0.3042

                    16                     17                     18
                     A                      A                      A
 Frequencies --   386.8904               429.0571               431.2708
 Red. masses --     2.1391                 2.2387                 2.0477
 Frc consts  --     0.1886                 0.2428                 0.2244
 IR Inten    --     0.3633                 0.2231                 0.5731

                    19                     20                     21
                     A                      A                      A
 Frequencies --   498.3796               571.9428               679.2579
 Red. masses --     2.8073                 3.5345                 4.9967
 Frc consts  --     0.4108                 0.6812                 1.3583
 IR Inten    --     0.3938                 0.8887                 1.1627

                    22                     23                     24
                     A                      A                      A
 Frequencies --   733.3121               800.4441               833.9289
 Red. masses --     1.1673                 2.1683                 2.1252
 Frc consts  --     0.3698                 0.8185                 0.8708
 IR Inten    --     4.2477                 0.8756                 1.9128

                    25                     26                     27
                     A                      A                      A
 Frequencies --   851.4241               890.9217               930.6547
 Red. masses --     1.9024                 5.5918                 1.2058
 Frc consts  --     0.8125                 2.6151                 0.6153
 IR Inten    --     0.6774                33.2683                 1.2111

                    28                     29                     30
                     A                      A                      A
 Frequencies --   945.2633               946.3314               954.7793
 Red. masses --     1.5808                 1.8932                 1.5159
 Frc consts  --     0.8322                 0.9989                 0.8142
 IR Inten    --     0.1378                 1.4026                 2.4428

                    31                     32                     33
                     A                      A                      A
 Frequencies --   964.3858               970.0398               998.6247
 Red. masses --     1.4544                 6.5414                 1.7266
 Frc consts  --     0.7970                 3.6266                 1.0145
 IR Inten    --     0.2312                 8.0480                 1.6563

                    34                     35                     36
                     A                      A                      A
 Frequencies --  1032.2618              1049.2404              1062.7733
 Red. masses --     3.0769                 2.0047                 1.6331
 Frc consts  --     1.9317                 1.3003                 1.0868
 IR Inten    --     1.3324                 1.9900                 2.3916

                    37                     38                     39
                     A                      A                      A
 Frequencies --  1122.6262              1142.4447              1153.9427
 Red. masses --     1.9812                 1.3487                 1.8035
 Frc consts  --     1.4712                 1.0371                 1.4149
 IR Inten    --     5.7012                17.5215                12.6809

                    40                     41                     42
                     A                      A                      A
 Frequencies --  1189.7534              1199.8846              1226.0868
 Red. masses --     1.7917                 1.9745                 1.5941
 Frc consts  --     1.4942                 1.6749                 1.4119
 IR Inten    --     7.1953                 0.9301                 6.6895

                    43                     44                     45
                     A                      A                      A
 Frequencies --  1239.4700              1260.6440              1287.2467
 Red. masses --     1.4808                 1.6976                 1.3743
 Frc consts  --     1.3403                 1.5896                 1.3417
 IR Inten    --     3.4374                 2.1849                 2.8836

                    46                     47                     48
                     A                      A                      A
 Frequencies --  1301.2276              1331.8402              1341.4062
 Red. masses --     1.3265                 1.1290                 1.2962
 Frc consts  --     1.3233                 1.1799                 1.3742
 IR Inten    --     1.5478                 1.2408                 3.2364

                    49                     50                     51
                     A                      A                      A
 Frequencies --  1353.7882              1371.1303              1382.1815
 Red. masses --     1.3247                 1.3324                 1.4934
 Frc consts  --     1.4304                 1.4759                 1.6810
 IR Inten    --     3.1146                 3.3932                 0.4139

                    52                     53                     54
                     A                      A                      A
 Frequencies --  1398.6609              1402.8405              1405.7280
 Red. masses --     1.4731                 1.2628                 1.2723
 Frc consts  --     1.6979                 1.4642                 1.4813
 IR Inten    --     3.5734                 7.8363                 5.8559

                    55                     56                     57
                     A                      A                      A
 Frequencies --  1424.5388              1469.4021              1480.8857
 Red. masses --     1.2369                 1.0779                 1.0727
 Frc consts  --     1.4789                 1.3713                 1.3861
 IR Inten    --     6.1981                 0.6751                 0.1857

                    58                     59                     60
                     A                      A                      A
 Frequencies --  1481.6569              1489.0399              1491.2738
 Red. masses --     1.0574                 1.0566                 1.0455
 Frc consts  --     1.3677                 1.3803                 1.3698
 IR Inten    --     5.5965                 7.6510                 1.2574

                    61                     62                     63
                     A                      A                      A
 Frequencies --  1496.4651              1497.8987              1504.6103
 Red. masses --     1.0701                 1.0710                 1.0921
 Frc consts  --     1.4119                 1.4157                 1.4566
 IR Inten    --     0.9900                 0.9400                 3.4569

                    64                     65                     66
                     A                      A                      A
 Frequencies --  1508.2574              1514.1540              1715.9212
 Red. masses --     1.0584                 1.0498                 1.0373
 Frc consts  --     1.4186                 1.4180                 1.7995
 IR Inten    --     3.8121                15.7312                12.6686

                    67                     68                     69
                     A                      A                      A
 Frequencies --  2952.6813              2983.8738              2985.0925
 Red. masses --     1.0703                 1.0524                 1.0723
 Frc consts  --     5.4978                 5.5205                 5.6295
 IR Inten    --    14.6565                18.5601                 6.5590

                    70                     71                     72
                     A                      A                      A
 Frequencies --  2992.5102              3013.1583              3018.9293
 Red. masses --     1.0693                 1.0368                 1.0863
 Frc consts  --     5.6421                 5.5463                 5.8334
 IR Inten    --    27.2138                27.8842                25.5828

                    73                     74                     75
                     A                      A                      A
 Frequencies --  3019.2372              3023.4601              3026.7909
 Red. masses --     1.0390                 1.0572                 1.0765
 Frc consts  --     5.5803                 5.6939                 5.8108
 IR Inten    --    28.6324                52.4052                14.3732

                    76                     77                     78
                     A                      A                      A
 Frequencies --  3034.6849              3064.9684              3071.3951
 Red. masses --     1.0863                 1.0803                 1.1013
 Frc consts  --     5.8944                 5.9791                 6.1209
 IR Inten    --     8.3489                13.7988                12.8732

                    79                     80                     81
                     A                      A                      A
 Frequencies --  3073.1813              3078.4196              3079.4294
 Red. masses --     1.1008                 1.1045                 1.1012
 Frc consts  --     6.1255                 6.1669                 6.1524
 IR Inten    --    29.4515                40.5248                75.6811

                    82                     83                     84
                     A                      A                      A
 Frequencies --  3084.3921              3095.6811              3106.6209
 Red. masses --     1.1012                 1.0996                 1.1022
 Frc consts  --     6.1725                 6.2085                 6.2676
 IR Inten    --    59.6113                38.0648                13.9887

 - Thermochemistry -
 -------------------
 Temperature   298.150 Kelvin.  Pressure   1.00000 Atm.
 Atom     1 has atomic number  6 and mass  12.00000

 Molecular mass:   159.13850 amu.
 Principal axes and moments of inertia in atomic units:
                           1         2         3
     Eigenvalues --   883.690744469.747724975.85545
           X            0.99980  -0.02012  -0.00192
           Y            0.02006   0.99944  -0.02662
           Z            0.00246   0.02657   0.99964
 This molecule is an asymmetric top.
 Rotational symmetry number  1.
 Warning -- assumption of classical behavior for rotation
           may cause significant error
 Rotational temperatures (Kelvin)      0.09801     0.01938     0.01741
 Rotational constants (GHZ):           2.04228     0.40377     0.36270
    1 imaginary frequencies ignored.
 Zero-point vibrational energy     690430.9 (Joules/Mol)
                                  165.01695 (Kcal/Mol)
 Warning -- explicit consideration of  19 degrees of freedom as
           vibrations may cause significant error
 Vibrational temperatures:     26.80    73.21    86.42   144.97   174.40
          (Kelvin)            187.82   307.40   318.65   323.74   344.51
                              364.11   392.24   452.11   516.15   556.65
                              617.32   620.50   717.06   822.90   977.30
                             1055.07  1151.66  1199.84  1225.01  1281.84
                             1339.00  1360.02  1361.56  1373.71  1387.53
                             1395.67  1436.80  1485.19  1509.62  1529.09
                             1615.21  1643.72  1660.26  1711.79  1726.36
                             1764.06  1783.32  1813.78  1852.06  1872.17
                             1916.22  1929.98  1947.80  1972.75  1988.65
                             2012.36  2018.37  2022.53  2049.59  2114.14
                             2130.66  2131.77  2142.39  2145.61  2153.08
                             2155.14  2164.80  2170.04  2178.53  2468.82
                             4248.24  4293.12  4294.88  4305.55  4335.26
                             4343.56  4344.00  4350.08  4354.87  4366.23
                             4409.80  4419.05  4421.62  4429.15  4430.61
                             4437.75  4453.99  4469.73

 Zero-point correction=                           0.262971 (Hartree/Particle)
 Thermal correction to Energy=                    0.276703
 Thermal correction to Enthalpy=                  0.277647
 Thermal correction to Gibbs Free Energy=         0.220795
 Sum of electronic and zero-point Energies=           -504.553567
 Sum of electronic and thermal Energies=              -504.539835
 Sum of electronic and thermal Enthalpies=            -504.538891
 Sum of electronic and thermal Free Energies=         -504.595743

                     E (Thermal)             CV                S
                      KCal/Mol        Cal/Mol-Kelvin    Cal/Mol-Kelvin
 Total                  173.634             50.008            119.655
 Electronic               0.000              0.000              1.377
 Translational            0.889              2.981             41.103
 Rotational               0.889              2.981             31.353
 Vibrational            171.856             44.046             45.822
 Vibration     1          0.593              1.986              6.775
 Vibration     2          0.595              1.977              4.783
 Vibration     3          0.597              1.973              4.455
 Vibration     4          0.604              1.949              3.440
 Vibration     5          0.609              1.932              3.081
 Vibration     6          0.612              1.923              2.938
 Vibration     7          0.644              1.820              2.012
 Vibration     8          0.648              1.808              1.947
 Vibration     9          0.650              1.803              1.918
 Vibration    10          0.657              1.780              1.807
 Vibration    11          0.664              1.758              1.709
 Vibration    12          0.676              1.724              1.580
 Vibration    13          0.702              1.647              1.340
 Vibration    14          0.734              1.557              1.128
 Vibration    15          0.755              1.498              1.012
 Vibration    16          0.790              1.407              0.862
 Vibration    17          0.792              1.402              0.855
 Vibration    18          0.854              1.254              0.662
 Vibration    19          0.928              1.092              0.501

 Optimization completed on the basis of negligible forces.
    -- Stationary point found.
 Normal termination of Gaussian 09 at Mon Feb 17 02:14:30 2014.

 -----------------------------------------------------------
 #P Geom=AllCheck Guess=TCheck SCRF=Check CCSD(T)/6-31+G(d')
 -----------------------------------------------------------

 Structure from the checkpoint file:  TS_1_1c.chk
 ------------------------------------
 TS_1_1c using cbs-qb3 to cal. energy
 ------------------------------------
 Charge =  0 Multiplicity = 2

 SCF Done:  E(UHF) =  -501.394521544     A.U. after   23 cycles
 E2 =    -0.1582015941D+01 EUMP2 =    -0.50297653748500D+03
 CCSD(T)
 CCSD(T)= -0.50315446988D+03
 21\MP4SDQ=-503.0928551\CCSD=-503.0973488\CCSD(T)=-503.1544699\S2=0.817
 Normal termination of Gaussian 09 at Mon Feb 17 15:38:53 2014.

 -----------------------------------------------------
 #P Geom=AllCheck Guess=TCheck SCRF=Check MP4SDQ/CBSB4
 -----------------------------------------------------

 Structure from the checkpoint file:  TS_1_1c.chk
 ------------------------------------
 TS_1_1c using cbs-qb3 to cal. energy
 ------------------------------------
 Charge =  0 Multiplicity = 2

 SCF Done:  E(UHF) =  -501.423545436     A.U. after   21 cycles
 E2 =    -0.1709503482D+01 EUMP2 =    -0.50313304891766D+03
 Normal termination of Gaussian 09 at Mon Feb 17 16:06:35 2014.

 ----------------------------------------------------------------------
 #P Geom=AllCheck Guess=TCheck SCRF=Check MP2/CBSB3 CBSExtrap=(NMin=10,
 MinPop)
 ----------------------------------------------------------------------

 Structure from the checkpoint file:  TS_1_1c.chk
 ------------------------------------
 TS_1_1c using cbs-qb3 to cal. energy
 ------------------------------------
 Charge =  0 Multiplicity = 2

                         Standard orientation:
 ---------------------------------------------------------------------
 Center     Atomic      Atomic             Coordinates (Angstroms)
 Number     Number       Type             X           Y           Z
 ---------------------------------------------------------------------
      1          6           0       -3.028935    1.673386   -0.234753
      2          1           0       -2.766614    2.286059   -1.101125
      3          1           0       -3.139703    2.351931    0.623829
      4          1           0       -3.998136    1.203752   -0.416078
      5          6           0       -1.969894    0.635125    0.050152
      6          1           0       -2.037255   -0.277542   -0.943243
      7          6           0       -0.556030    1.146348    0.231849
      8          1           0       -0.430739    2.064629   -0.352528
      9          1           0       -0.426394    1.447675    1.284657
     10          6           0        0.559420    0.155801   -0.145861
     11          1           0        0.469771   -0.086907   -1.211231
     12          1           0        0.415917   -0.785903    0.390666
     13          6           0        1.958772    0.715551    0.136305
     14          1           0        2.069125    0.893834    1.215030
     15          1           0        2.047413    1.698869   -0.342967
     16          6           0        3.127008   -0.165962   -0.344781
     17          1           0        2.983217   -0.347015   -1.418880
     18          6           0        4.461998    0.571199   -0.169510
     19          1           0        4.657270    0.779381    0.888252
     20          1           0        5.296703   -0.025194   -0.548832
     21          1           0        4.463625    1.526658   -0.702422
     22          6           0       -2.442320   -0.506790    0.971772
     23          1           0       -1.591422   -1.083461    1.348086
     24          1           0       -3.069514   -0.174509    1.805469
     25          6           0        3.165194   -1.529193    0.360752
     26          1           0        4.013891   -2.124558    0.012225
     27          1           0        3.271906   -1.403415    1.444228
     28          1           0        2.259703   -2.112606    0.178748
     29          8           0       -3.270032   -1.318964    0.138591
     30          8           0       -2.497473   -1.431594   -1.049770
 ---------------------------------------------------------------------

 SCF Done:  E(UHF) =  -501.562059004     A.U. after   19 cycles
 E2 =    -0.2011822110D+01 EUMP2 =    -0.50357388111312D+03
 E2(CBS)=      -2.209172 CBS-Int=       0.066044 OIii=      17.316342

 The electronic state is 2-A.
 Alpha  occ. eigenvalues --  -20.63759 -20.61530 -11.29158 -11.27158 -11.23758
 Alpha  occ. eigenvalues --  -11.22914 -11.22821 -11.22685 -11.22167 -11.21206
 Alpha  occ. eigenvalues --  -11.21136  -1.49014  -1.20149  -1.12292  -1.09084
 Alpha  occ. eigenvalues --   -1.02338  -0.94110  -0.93021  -0.92439  -0.83659
 Alpha  occ. eigenvalues --   -0.79269  -0.76746  -0.72258  -0.68236  -0.65870
 Alpha  occ. eigenvalues --   -0.64015  -0.61504  -0.60733  -0.59983  -0.58913
 Alpha  occ. eigenvalues --   -0.58309  -0.55489  -0.54399  -0.54211  -0.53561
 Alpha  occ. eigenvalues --   -0.52525  -0.51589  -0.50508  -0.48981  -0.48347
 Alpha  occ. eigenvalues --   -0.46158  -0.45889  -0.44804  -0.43425  -0.39113
 Alpha virt. eigenvalues --    0.03589   0.04450   0.04702   0.05380   0.06151
 Alpha virt. eigenvalues --    0.06273   0.06842   0.07219   0.08030   0.08374
 Alpha virt. eigenvalues --    0.08647   0.08891   0.09605   0.10270   0.11760

  Beta  occ. eigenvalues --  -20.61767 -20.60746 -11.29271 -11.25437 -11.23907
  Beta  occ. eigenvalues --  -11.23052 -11.22822 -11.22629 -11.22172 -11.21206
  Beta  occ. eigenvalues --  -11.21136  -1.45854  -1.14396  -1.10850  -1.07950
  Beta  occ. eigenvalues --   -1.01754  -0.93824  -0.93019  -0.92099  -0.83306
  Beta  occ. eigenvalues --   -0.76882  -0.74997  -0.67646  -0.66841  -0.64955
  Beta  occ. eigenvalues --   -0.63455  -0.60814  -0.59645  -0.59152  -0.58103
  Beta  occ. eigenvalues --   -0.56285  -0.54927  -0.53881  -0.53568  -0.52210
  Beta  occ. eigenvalues --   -0.51277  -0.50318  -0.48518  -0.47882  -0.46238
  Beta  occ. eigenvalues --   -0.46097  -0.45663  -0.44451  -0.41612
  Beta virt. eigenvalues --    0.03421   0.04380   0.04689   0.05371   0.06147
  Beta virt. eigenvalues --    0.06157   0.06532   0.06964   0.07244   0.08124
  Beta virt. eigenvalues --    0.08390   0.08745   0.08912   0.09650   0.10374

 Mulliken atomic charges:
              1
     1  C    0.029776
     2  H    0.087490
     3  H    0.063852
     4  H    0.128911
     5  C    0.808454
     6  H    0.205856
     7  C   -0.623788
     8  H    0.036223
     9  H    0.116926
    10  C    0.024148
    11  H    0.081615
    12  H    0.013529
    13  C   -0.899406
    14  H    0.071745
    15  H    0.044478
    16  C    0.986838
    17  H    0.033975
    18  C   -0.400117
    19  H    0.053846
    20  H    0.102380
    21  H    0.055570
    22  C   -0.553415
    23  H    0.115198
    24  H    0.089922
    25  C   -0.608174
    26  H    0.088200
    27  H    0.065147
    28  H    0.077460
    29  O   -0.111192
    30  O   -0.185450
 Sum of Mulliken atomic charges =   0.00000

 Dipole moment (field-independent basis, Debye):
    X=              1.8257    Y=              2.8935    Z=              1.5718  Tot=              3.7651
 Quadrupole moment (field-independent basis, Debye-Ang):
   XX=            -79.7919   YY=            -75.4300   ZZ=            -70.6227
   XY=             -9.1275   XZ=             -5.0613   YZ=             -2.3125

    1 imaginary frequencies ignored.
 Normal termination of Gaussian 09 at Mon Feb 17 17:21:33 2014.
