 Gaussian 09, Revision C.01,
 Gaussian 09:  EM64L-G09RevC.01 23-Sep-2011

 -------------------------------
 #p cbs-qb3 opt=(TS,calcfc) freq
 -------------------------------

 (Enter /usr/caen/gaussian-09revc/g09/l101.exe)
 ----------------------------------------------------
 TS_1_C9H18_1 using B3LYP/6-311++g(d,p) to calc. freq
 ----------------------------------------------------
 Charge =  0 Multiplicity = 2

 SCF Done:  E(UB3LYP) =  -504.822322807     A.U. after   22 cycles
 SCF Done:  E(UB3LYP) =  -504.822364636     A.U. after   16 cycles
 SCF Done:  E(UB3LYP) =  -504.822364690     A.U. after   10 cycles
 Optimization completed.
    -- Stationary point found.
 Normal termination of Gaussian 09 at Tue Feb 25 20:13:00 2014.

 ---------------------------------------------------------
 #P Geom=AllCheck Guess=TCheck SCRF=Check B3LYP/CBSB7 Freq
 ---------------------------------------------------------

 Structure from the checkpoint file:  TS_1_C9H18_1.chk
 ----------------------------------------------------
 TS_1_C9H18_1 using B3LYP/6-311++g(d,p) to calc. freq
 ----------------------------------------------------
 Charge =  0 Multiplicity = 2

 SCF Done:  E(UB3LYP) =  -504.822364690     A.U. after    1 cycles

  Exact polarizability: 128.670   0.691 120.102   1.488  -0.301 105.765
 Approx polarizability: 147.625   8.007 186.044   4.074  -7.943 188.158

 ******    1 imaginary frequencies (negative Signs) ******

                     1                      2                      3
                     A                      A                      A
 Frequencies --  -913.6028                21.8694                45.2305
 Red. masses --     1.5786                 2.7630                 4.8031
 Frc consts  --     0.7763                 0.0008                 0.0058
 IR Inten    --    78.0615                 0.2714                 1.0405

                     4                      5                      6
                     A                      A                      A
 Frequencies --    73.8153                98.9741               117.2289
 Red. masses --     3.4856                 2.4073                 2.1804
 Frc consts  --     0.0112                 0.0139                 0.0177
 IR Inten    --     0.3565                 0.5439                 0.3736

                     7                      8                      9
                     A                      A                      A
 Frequencies --   142.4430               187.1335               199.3881
 Red. masses --     2.7293                 4.6838                 1.0583
 Frc consts  --     0.0326                 0.0966                 0.0248
 IR Inten    --     0.4320                 0.1349                 0.0743

                    10                     11                     12
                     A                      A                      A
 Frequencies --   216.7350               223.9311               244.3774
 Red. masses --     2.4305                 1.1100                 1.8163
 Frc consts  --     0.0673                 0.0328                 0.0639
 IR Inten    --     0.8673                 0.2628                 0.1560

                    13                     14                     15
                     A                      A                      A
 Frequencies --   260.0477               290.8318               368.2601
 Red. masses --     1.5904                 3.3804                 3.7945
 Frc consts  --     0.0634                 0.1685                 0.3032
 IR Inten    --     0.2821                 3.2899                15.9750

                    16                     17                     18
                     A                      A                      A
 Frequencies --   372.1372               387.9139               436.2426
 Red. masses --     2.8236                 2.1803                 2.0352
 Frc consts  --     0.2304                 0.1933                 0.2282
 IR Inten    --     5.6543                 0.0376                 0.0945

                    19                     20                     21
                     A                      A                      A
 Frequencies --   450.2424               509.1245               553.4097
 Red. masses --     2.3119                 2.6015                 2.5409
 Frc consts  --     0.2761                 0.3973                 0.4585
 IR Inten    --     0.1754                 0.5052                12.0392

                    22                     23                     24
                     A                      A                      A
 Frequencies --   686.9740               740.1676               752.8972
 Red. masses --     5.3900                 1.1031                 1.1182
 Frc consts  --     1.4987                 0.3561                 0.3735
 IR Inten    --     3.0254                 1.1247                 1.1645

                    25                     26                     27
                     A                      A                      A
 Frequencies --   813.4665               845.5890               886.6970
 Red. masses --     2.5688                 1.4282                 2.1837
 Frc consts  --     1.0015                 0.6017                 1.0116
 IR Inten    --     1.6331                 1.6436                 9.3282

                    28                     29                     30
                     A                      A                      A
 Frequencies --   928.6465               933.6143               957.8522
 Red. masses --     1.1918                 1.7829                 1.8002
 Frc consts  --     0.6056                 0.9156                 0.9731
 IR Inten    --     1.5008                 3.5675                 0.1647

                    31                     32                     33
                     A                      A                      A
 Frequencies --   964.8519               979.8956               999.2443
 Red. masses --     1.4928                 1.2596                 1.6802
 Frc consts  --     0.8188                 0.7126                 0.9885
 IR Inten    --     0.0500                 0.7133                 3.4953

                    34                     35                     36
                     A                      A                      A
 Frequencies --  1008.5361              1052.5428              1060.4713
 Red. masses --     1.5078                 2.2525                 2.1618
 Frc consts  --     0.9036                 1.4703                 1.4324
 IR Inten    --     3.7115                 0.0211                 0.2771

                    37                     38                     39
                     A                      A                      A
 Frequencies --  1067.5102              1143.1325              1152.0413
 Red. masses --     1.4608                 1.9170                 1.8059
 Frc consts  --     0.9808                 1.4759                 1.4121
 IR Inten    --    14.8006                 0.2207                13.3303

                    40                     41                     42
                     A                      A                      A
 Frequencies --  1190.4716              1202.5288              1228.8948
 Red. masses --     1.7601                 1.5992                 1.5114
 Frc consts  --     1.4697                 1.3625                 1.3448
 IR Inten    --     7.1243                18.5595                 6.6934

                    43                     44                     45
                     A                      A                      A
 Frequencies --  1252.3661              1288.4481              1306.5471
 Red. masses --     1.2844                 1.4154                 1.2519
 Frc consts  --     1.1869                 1.3844                 1.2592
 IR Inten    --     6.3379                 4.2225                 8.7468

                    46                     47                     48
                     A                      A                      A
 Frequencies --  1331.9714              1338.7037              1340.3716
 Red. masses --     4.5818                 1.4675                 1.1351
 Frc consts  --     4.7893                 1.5496                 1.2015
 IR Inten    --   157.5265                 2.4672                 6.0174

                    49                     50                     51
                     A                      A                      A
 Frequencies --  1368.7648              1376.6613              1397.3703
 Red. masses --     1.3691                 1.5110                 1.5003
 Frc consts  --     1.5113                 1.6872                 1.7260
 IR Inten    --     6.1145                 7.0946                 1.1216

                    52                     53                     54
                     A                      A                      A
 Frequencies --  1402.4239              1414.9370              1421.0161
 Red. masses --     1.2632                 1.2753                 1.2618
 Frc consts  --     1.4638                 1.5043                 1.5012
 IR Inten    --    13.6718                 2.4239                 3.4939

                    55                     56                     57
                     A                      A                      A
 Frequencies --  1423.3148              1481.9638              1490.2386
 Red. masses --     1.3594                 1.0724                 1.0497
 Frc consts  --     1.6225                 1.3877                 1.3735
 IR Inten    --    11.2550                 0.4434                 8.6365

                    58                     59                     60
                     A                      A                      A
 Frequencies --  1491.2289              1492.3808              1497.1990
 Red. masses --     1.0741                 1.0486                 1.0582
 Frc consts  --     1.4072                 1.3760                 1.3976
 IR Inten    --     0.5943                 2.1781                 1.9405

                    61                     62                     63
                     A                      A                      A
 Frequencies --  1503.9107              1506.1973              1508.7874
 Red. masses --     1.0600                 1.0599                 1.0905
 Frc consts  --     1.4126                 1.4167                 1.4626
 IR Inten    --     7.8015                 5.5846                 0.9505

                    64                     65                     66
                     A                      A                      A
 Frequencies --  1514.2190              1568.1432              1586.3139
 Red. masses --     1.0550                 1.1165                 2.1203
 Frc consts  --     1.4252                 1.6176                 3.1435
 IR Inten    --    15.9198                34.2971                14.2292

                    67                     68                     69
                     A                      A                      A
 Frequencies --  2983.7355              2992.2796              2996.8648
 Red. masses --     1.0795                 1.0625                 1.0608
 Frc consts  --     5.6623                 5.6050                 5.6133
 IR Inten    --     6.4695                 4.7413                38.7838

                    70                     71                     72
                     A                      A                      A
 Frequencies --  3012.3355              3013.5530              3019.2871
 Red. masses --     1.0687                 1.0418                 1.0383
 Frc consts  --     5.7138                 5.5745                 5.5766
 IR Inten    --    10.0544                46.2599                32.0222

                    73                     74                     75
                     A                      A                      A
 Frequencies --  3020.1898              3024.7941              3027.0116
 Red. masses --     1.0377                 1.1008                 1.0843
 Frc consts  --     5.5767                 5.9340                 5.8537
 IR Inten    --    29.8957                10.5387                42.4170

                    76                     77                     78
                     A                      A                      A
 Frequencies --  3065.6260              3072.8904              3076.4511
 Red. masses --     1.1021                 1.1004                 1.0998
 Frc consts  --     6.1027                 6.1221                 6.1329
 IR Inten    --    36.6088                13.3549                24.0219

                    79                     80                     81
                     A                      A                      A
 Frequencies --  3078.9635              3083.5204              3094.2754
 Red. masses --     1.1001                 1.1013                 1.0998
 Frc consts  --     6.1445                 6.1693                 6.2042
 IR Inten    --    73.6349                56.3937                40.2538

                    82                     83                     84
                     A                      A                      A
 Frequencies --  3097.5103              3159.9021              3247.5134
 Red. masses --     1.1018                 1.0584                 1.1166
 Frc consts  --     6.2285                 6.2265                 6.9383
 IR Inten    --    26.6356                 9.1367                 7.4525

 - Thermochemistry -
 -------------------
 Temperature   298.150 Kelvin.  Pressure   1.00000 Atm.
 Atom     1 has atomic number  6 and mass  12.00000

 Molecular mass:   159.13850 amu.
 Principal axes and moments of inertia in atomic units:
                           1         2         3
     Eigenvalues --  1056.395814206.074264837.94792
           X            0.99971  -0.02407   0.00217
           Y            0.02402   0.99947   0.02198
           Z           -0.00270  -0.02192   0.99976
 This molecule is an asymmetric top.
 Rotational symmetry number  1.
 Warning -- assumption of classical behavior for rotation
           may cause significant error
 Rotational temperatures (Kelvin)      0.08199     0.02059     0.01790
 Rotational constants (GHZ):           1.70839     0.42908     0.37304
    1 imaginary frequencies ignored.
 Zero-point vibrational energy     688842.9 (Joules/Mol)
                                  164.63741 (Kcal/Mol)
 Warning -- explicit consideration of  20 degrees of freedom as
           vibrations may cause significant error
 Vibrational temperatures:     31.47    65.08   106.20   142.40   168.67
          (Kelvin)            204.94   269.24   286.87   311.83   322.19
                              351.60   374.15   418.44   529.84   535.42
                              558.12   627.65   647.80   732.52   796.23
                              988.40  1064.93  1083.25  1170.40  1216.61
                             1275.76  1336.11  1343.26  1378.13  1388.20
                             1409.85  1437.69  1451.06  1514.37  1525.78
                             1535.91  1644.71  1657.53  1712.82  1730.17
                             1768.10  1801.87  1853.79  1879.83  1916.41
                             1926.09  1928.49  1969.34  1980.71  2010.50
                             2017.77  2035.78  2044.52  2047.83  2132.21
                             2144.12  2145.54  2147.20  2154.13  2163.79
                             2167.08  2170.81  2178.62  2256.21  2282.35
                             4292.92  4305.22  4311.81  4334.07  4335.83
                             4344.08  4345.37  4352.00  4355.19  4410.75
                             4421.20  4426.32  4429.94  4436.49  4451.97
                             4456.62  4546.39  4672.44

 Zero-point correction=                           0.262366 (Hartree/Particle)
 Thermal correction to Energy=                    0.276512
 Thermal correction to Enthalpy=                  0.277457
 Thermal correction to Gibbs Free Energy=         0.219980
 Sum of electronic and zero-point Energies=           -504.559998
 Sum of electronic and thermal Energies=              -504.545852
 Sum of electronic and thermal Enthalpies=            -504.544908
 Sum of electronic and thermal Free Energies=         -504.602384

                     E (Thermal)             CV                S
                      KCal/Mol        Cal/Mol-Kelvin    Cal/Mol-Kelvin
 Total                  173.514             51.297            120.969
 Electronic               0.000              0.000              1.377
 Translational            0.889              2.981             41.103
 Rotational               0.889              2.981             31.442
 Vibrational            171.737             45.336             47.047
 Vibration     1          0.593              1.985              6.457
 Vibration     2          0.595              1.979              5.016
 Vibration     3          0.599              1.966              4.049
 Vibration     4          0.604              1.950              3.474
 Vibration     5          0.608              1.935              3.146
 Vibration     6          0.616              1.911              2.771
 Vibration     7          0.632              1.857              2.256
 Vibration     8          0.638              1.841              2.139
 Vibration     9          0.646              1.816              1.986
 Vibration    10          0.649              1.805              1.927
 Vibration    11          0.660              1.772              1.771
 Vibration    12          0.668              1.746              1.661
 Vibration    13          0.687              1.691              1.469
 Vibration    14          0.741              1.537              1.087
 Vibration    15          0.744              1.529              1.071
 Vibration    16          0.756              1.496              1.008
 Vibration    17          0.797              1.391              0.839
 Vibration    18          0.809              1.360              0.795
 Vibration    19          0.864              1.230              0.636
 Vibration    20          0.909              1.132              0.537

 Optimization completed.
    -- Stationary point found.
 Normal termination of Gaussian 09 at Tue Feb 25 20:26:16 2014.

 -----------------------------------------------------------
 #P Geom=AllCheck Guess=TCheck SCRF=Check CCSD(T)/6-31+G(d')
 -----------------------------------------------------------

 Structure from the checkpoint file:  TS_1_C9H18_1.chk
 ----------------------------------------------------
 TS_1_C9H18_1 using B3LYP/6-311++g(d,p) to calc. freq
 ----------------------------------------------------
 Charge =  0 Multiplicity = 2

 SCF Done:  E(UHF) =  -501.381537937     A.U. after   25 cycles
 E2 =    -0.1597122218D+01 EUMP2 =    -0.50297866015477D+03
 CCSD(T)
 CCSD(T)= -0.50315544631D+03
 Normal termination of Gaussian 09 at Wed Feb 26 11:17:24 2014.

 -----------------------------------------------------
 #P Geom=AllCheck Guess=TCheck SCRF=Check MP4SDQ/CBSB4
 -----------------------------------------------------

 Structure from the checkpoint file:  TS_1_C9H18_1.chk
 ----------------------------------------------------
 TS_1_C9H18_1 using B3LYP/6-311++g(d,p) to calc. freq
 ----------------------------------------------------
 Charge =  0 Multiplicity = 2

 SCF Done:  E(UHF) =  -501.410040215     A.U. after   22 cycles
 E2 =    -0.1723653596D+01 EUMP2 =    -0.50313369381139D+03
 Normal termination of Gaussian 09 at Wed Feb 26 11:55:35 2014.

 ----------------------------------------------------------------------
 #P Geom=AllCheck Guess=TCheck SCRF=Check MP2/CBSB3 CBSExtrap=(NMin=10,
 MinPop)
 ----------------------------------------------------------------------

 Structure from the checkpoint file:  TS_1_C9H18_1.chk
 ----------------------------------------------------
 TS_1_C9H18_1 using B3LYP/6-311++g(d,p) to calc. freq
 ----------------------------------------------------
 Charge =  0 Multiplicity = 2

                         Standard orientation:
 ---------------------------------------------------------------------
 Center     Atomic      Atomic             Coordinates (Angstroms)
 Number     Number       Type             X           Y           Z
 ---------------------------------------------------------------------
      1          6           0        3.141614   -1.677223   -0.448616
      2          1           0        3.080035   -2.661504    0.027421
      3          1           0        3.020536   -1.826135   -1.525168
      4          1           0        4.145060   -1.280956   -0.276274
      5          6           0        2.067516   -0.738208    0.104259
      6          1           0        2.185307    0.316679   -0.664632
      7          6           0        0.629090   -1.201362   -0.180149
      8          1           0        0.483174   -2.183492    0.289318
      9          1           0        0.538152   -1.375397   -1.259257
     10          6           0       -0.492540   -0.254344    0.262499
     11          1           0       -0.490132   -0.155870    1.354520
     12          1           0       -0.300138    0.745113   -0.140106
     13          6           0       -1.876850   -0.744612   -0.182614
     14          1           0       -1.911830   -0.786936   -1.279747
     15          1           0       -2.011770   -1.776812    0.164683
     16          6           0       -3.064115    0.097518    0.321779
     17          1           0       -2.989969    0.151162    1.416901
     18          6           0       -4.393952   -0.587602   -0.022795
     19          1           0       -4.520992   -0.670091   -1.107826
     20          1           0       -5.244387   -0.021109    0.367496
     21          1           0       -4.443363   -1.597231    0.395675
     22          6           0        2.364635   -0.003600    1.250949
     23          1           0        1.597624    0.431318    1.876809
     24          1           0        3.374329    0.046392    1.638769
     25          6           0       -3.040715    1.532866   -0.223137
     26          1           0       -3.899390    2.102985    0.143098
     27          1           0       -3.085967    1.532357   -1.317998
     28          1           0       -2.138395    2.072964    0.072696
     29          8           0        2.656841    1.959823    0.253114
     30          8           0        2.418662    1.589672   -0.936792
 ---------------------------------------------------------------------

 SCF Done:  E(UHF) =  -501.547364630     A.U. after   21 cycles
 E2 =    -0.2025616312D+01 EUMP2 =    -0.50357298094179D+03
 E2(CBS)=      -2.220910 CBS-Int=       0.065617 OIii=      17.149880

 The electronic state is 2-A.
 Alpha  occ. eigenvalues --  -20.65594 -20.64044 -11.27903 -11.24215 -11.23344
 Alpha  occ. eigenvalues --  -11.22927 -11.22600 -11.22266 -11.21859 -11.21010
 Alpha  occ. eigenvalues --  -11.20833  -1.57311  -1.13153  -1.12002  -1.08984
 Alpha  occ. eigenvalues --   -1.02266  -0.94242  -0.92754  -0.92396  -0.83267
 Alpha  occ. eigenvalues --   -0.76946  -0.76530  -0.73752  -0.73083  -0.65943
 Alpha  occ. eigenvalues --   -0.64962  -0.64813  -0.61867  -0.60967  -0.58913
 Alpha  occ. eigenvalues --   -0.58785  -0.56886  -0.53522  -0.53447  -0.53294
 Alpha  occ. eigenvalues --   -0.52051  -0.50154  -0.49415  -0.48324  -0.47870
 Alpha  occ. eigenvalues --   -0.46681  -0.45904  -0.45430  -0.44027  -0.39082
 Alpha virt. eigenvalues --    0.03460   0.04385   0.04855   0.05401   0.06032
 Alpha virt. eigenvalues --    0.06254   0.06704   0.07478   0.08008   0.08174
 Alpha virt. eigenvalues --    0.08706   0.09318   0.09824   0.09986   0.10851

  Beta  occ. eigenvalues --  -20.61659 -20.60924 -11.28808 -11.23653 -11.23395
  Beta  occ. eigenvalues --  -11.22980 -11.22601 -11.22263 -11.21861 -11.21010
  Beta  occ. eigenvalues --  -11.20833  -1.48453  -1.12305  -1.09062  -1.02525
  Beta  occ. eigenvalues --   -1.00354  -0.95314  -0.92755  -0.92555  -0.83199
  Beta  occ. eigenvalues --   -0.76647  -0.75897  -0.69256  -0.65550  -0.64623
  Beta  occ. eigenvalues --   -0.62315  -0.61413  -0.60563  -0.58810  -0.58094
  Beta  occ. eigenvalues --   -0.56666  -0.53586  -0.53441  -0.53263  -0.51953
  Beta  occ. eigenvalues --   -0.50094  -0.49528  -0.48923  -0.48092  -0.45896
  Beta  occ. eigenvalues --   -0.45426  -0.44000  -0.39771  -0.35306
  Beta virt. eigenvalues --    0.03378   0.04380   0.04843   0.05362   0.06009
  Beta virt. eigenvalues --    0.06244   0.06540   0.07379   0.07792   0.08124
  Beta virt. eigenvalues --    0.08558   0.09187   0.09571   0.09991   0.10828

 Mulliken atomic charges:
              1
     1  C   -0.137931
     2  H    0.058436
     3  H    0.086881
     4  H    0.101638
     5  C    0.420348
     6  H    0.473670
     7  C   -0.493182
     8  H    0.053525
     9  H    0.110512
    10  C    0.237732
    11  H    0.020357
    12  H    0.005047
    13  C   -0.862095
    14  H    0.077906
    15  H    0.054219
    16  C    0.993950
    17  H    0.030664
    18  C   -0.388053
    19  H    0.054527
    20  H    0.101158
    21  H    0.053864
    22  C   -0.738959
    23  H    0.192571
    24  H    0.177820
    25  C   -0.591188
    26  H    0.088950
    27  H    0.063536
    28  H    0.083935
    29  O   -0.031435
    30  O   -0.298403
 Sum of Mulliken atomic charges =   0.00000

 Dipole moment (field-independent basis, Debye):
    X=             -0.6629    Y=             -2.9898    Z=              1.7044  Tot=              3.5047
 Quadrupole moment (field-independent basis, Debye-Ang):
   XX=            -73.1768   YY=            -78.5218   ZZ=            -70.0384
   XY=             -8.3609   XZ=              3.9550   YZ=              2.1708

    1 imaginary frequencies ignored.
 Normal termination of Gaussian 09 at Wed Feb 26 14:07:45 2014.
