 Gaussian 09, Revision C.01,
 Gaussian 09:  EM64L-G09RevC.01 23-Sep-2011

 -------------------------------
 #p cbs-qb3 opt=(ts,calcfc) freq
 -------------------------------

 (Enter /usr/caen/gaussian-09revc/g09/l101.exe)
 -------------------------------------------
 TS_1_C9H18O_1 using cbs-qb3 to calc. energy
 -------------------------------------------
 Charge =  0 Multiplicity = 2

 SCF Done:  E(UB3LYP) =  -504.795666012     A.U. after   20 cycles
 SCF Done:  E(UB3LYP) =  -504.795799144     A.U. after   15 cycles
 SCF Done:  E(UB3LYP) =  -504.795800928     A.U. after   13 cycles
 SCF Done:  E(UB3LYP) =  -504.795801618     A.U. after   11 cycles
 SCF Done:  E(UB3LYP) =  -504.795801632     A.U. after    6 cycles
 Optimization completed.
    -- Stationary point found.
 Normal termination of Gaussian 09 at Fri Feb 21 13:17:58 2014.

 ---------------------------------------------------------
 #P Geom=AllCheck Guess=TCheck SCRF=Check B3LYP/CBSB7 Freq
 ---------------------------------------------------------

 Structure from the checkpoint file:  TS_1_C9H18O_1.chk
 -------------------------------------------
 TS_1_C9H18O_1 using cbs-qb3 to calc. energy
 -------------------------------------------
 Charge =  0 Multiplicity = 2

 SCF Done:  E(UB3LYP) =  -504.795801632     A.U. after    1 cycles

  Exact polarizability: 130.543   7.904 117.119  -2.576  -0.751  98.025
 Approx polarizability: 155.223  13.532 173.064  -0.199  -7.285 155.417

 ******    1 imaginary frequencies (negative Signs) ******

                     1                      2                      3
                     A                      A                      A
 Frequencies -- -1832.9775                31.7490                43.5352
 Red. masses --     1.0936                 2.8694                 4.5717
 Frc consts  --     2.1649                 0.0017                 0.0051
 IR Inten    --    62.3151                 0.5725                 1.7022

                     4                      5                      6
                     A                      A                      A
 Frequencies --    76.1575                94.2167               106.8994
 Red. masses --     3.6688                 3.0494                 2.9605
 Frc consts  --     0.0125                 0.0159                 0.0199
 IR Inten    --     2.0773                 0.0076                 1.5904

                     7                      8                      9
                     A                      A                      A
 Frequencies --   133.4486               146.9097               218.9103
 Red. masses --     2.3647                 2.7742                 1.4393
 Frc consts  --     0.0248                 0.0353                 0.0406
 IR Inten    --     0.5999                 0.6924                 0.1375

                    10                     11                     12
                     A                      A                      A
 Frequencies --   224.0446               232.9790               242.9971
 Red. masses --     1.1391                 2.3539                 2.1167
 Frc consts  --     0.0337                 0.0753                 0.0736
 IR Inten    --     0.2644                 1.1075                 1.8575

                    13                     14                     15
                     A                      A                      A
 Frequencies --   259.2655               264.0345               354.9783
 Red. masses --     1.2886                 1.8879                 2.4836
 Frc consts  --     0.0510                 0.0775                 0.1844
 IR Inten    --     0.9562                 1.3605                 0.0722

                    16                     17                     18
                     A                      A                      A
 Frequencies --   378.3270               414.5988               446.4074
 Red. masses --     2.6149                 2.3177                 2.1800
 Frc consts  --     0.2205                 0.2347                 0.2560
 IR Inten    --     1.4040                 0.0499                 1.1684

                    19                     20                     21
                     A                      A                      A
 Frequencies --   499.7359               602.6067               633.1176
 Red. masses --     2.8257                 2.5198                 2.2191
 Frc consts  --     0.4158                 0.5391                 0.5241
 IR Inten    --     1.0010                 3.7838                12.4589

                    22                     23                     24
                     A                      A                      A
 Frequencies --   752.6023               794.4305               805.7682
 Red. masses --     1.1519                10.8283                 2.6765
 Frc consts  --     0.3844                 4.0264                 1.0239
 IR Inten    --     5.0521                 0.1721                 1.0382

                    25                     26                     27
                     A                      A                      A
 Frequencies --   845.6376               859.7166               903.3140
 Red. masses --     1.4867                 2.1745                 2.3266
 Frc consts  --     0.6264                 0.9469                 1.1185
 IR Inten    --     3.0386                 3.3506                 4.2541

                    28                     29                     30
                     A                      A                      A
 Frequencies --   930.3591               942.1698               946.3383
 Red. masses --     1.2165                 2.1015                 1.6476
 Frc consts  --     0.6204                 1.0991                 0.8694
 IR Inten    --     1.7889                 4.6737                 3.2214

                    31                     32                     33
                     A                      A                      A
 Frequencies --   964.5567               985.2735              1006.4581
 Red. masses --     1.4503                 2.0094                 1.9741
 Frc consts  --     0.7950                 1.1493                 1.1782
 IR Inten    --     0.0796                 2.9409                 1.3451

                    34                     35                     36
                     A                      A                      A
 Frequencies --  1032.2196              1059.8514              1066.0702
 Red. masses --     2.0566                 2.4349                 1.5634
 Frc consts  --     1.2911                 1.6115                 1.0469
 IR Inten    --    15.0571                 4.1853                26.3545

                    37                     38                     39
                     A                      A                      A
 Frequencies --  1085.5703              1123.9501              1142.1943
 Red. masses --     2.0698                 1.2647                 2.2139
 Frc consts  --     1.4371                 0.9413                 1.7017
 IR Inten    --     6.3283                20.8076                 0.7284

                    40                     41                     42
                     A                      A                      A
 Frequencies --  1170.8910              1179.8284              1191.4185
 Red. masses --     1.9335                 2.1425                 1.7777
 Frc consts  --     1.5618                 1.7571                 1.4867
 IR Inten    --    16.6218                 1.6862                 3.8593

                    43                     44                     45
                     A                      A                      A
 Frequencies --  1225.2186              1273.3492              1299.2929
 Red. masses --     1.5607                 1.2422                 1.3511
 Frc consts  --     1.3804                 1.1867                 1.3438
 IR Inten    --     2.5882                 0.3960                 2.2376

                    46                     47                     48
                     A                      A                      A
 Frequencies --  1316.4862              1338.2762              1341.1856
 Red. masses --     1.2287                 1.2788                 1.1488
 Frc consts  --     1.2546                 1.3494                 1.2175
 IR Inten    --     0.4934                 4.9869                 1.1119

                    49                     50                     51
                     A                      A                      A
 Frequencies --  1359.6281              1371.4935              1375.2170
 Red. masses --     1.3759                 1.3319                 1.3727
 Frc consts  --     1.4986                 1.4761                 1.5296
 IR Inten    --     6.1696                 2.5558                 1.1295

                    52                     53                     54
                     A                      A                      A
 Frequencies --  1389.1649              1397.6557              1403.5956
 Red. masses --     1.3913                 1.4419                 1.2511
 Frc consts  --     1.5819                 1.6595                 1.4522
 IR Inten    --     3.3043                 1.0644                 8.7903

                    55                     56                     57
                     A                      A                      A
 Frequencies --  1413.5099              1423.4345              1482.8972
 Red. masses --     1.3217                 1.2403                 1.0716
 Frc consts  --     1.5559                 1.4807                 1.3884
 IR Inten    --     3.0086                 5.7663                 0.1543

                    58                     59                     60
                     A                      A                      A
 Frequencies --  1488.2937              1491.9418              1496.3970
 Red. masses --     1.0752                 1.0436                 1.0437
 Frc consts  --     1.4032                 1.3687                 1.3770
 IR Inten    --     0.9872                 0.9808                 8.8846

                    61                     62                     63
                     A                      A                      A
 Frequencies --  1497.2842              1503.3659              1506.8872
 Red. masses --     1.0585                 1.0696                 1.0561
 Frc consts  --     1.3981                 1.4243                 1.4129
 IR Inten    --     1.9324                 2.8962                 5.8395

                    64                     65                     66
                     A                      A                      A
 Frequencies --  1508.0584              1513.9908              1948.3576
 Red. masses --     1.0815                 1.0521                 1.0457
 Frc consts  --     1.4492                 1.4208                 2.3387
 IR Inten    --     6.1027                16.1952                11.3535

                    67                     68                     69
                     A                      A                      A
 Frequencies --  2983.1660              2992.7734              2999.8955
 Red. masses --     1.0811                 1.0618                 1.0697
 Frc consts  --     5.6686                 5.6032                 5.6717
 IR Inten    --     9.2651                 6.2870                34.3956

                    70                     71                     72
                     A                      A                      A
 Frequencies --  3009.9956              3013.7310              3019.5961
 Red. masses --     1.0819                 1.0358                 1.0548
 Frc consts  --     5.7755                 5.5431                 5.6664
 IR Inten    --    17.2635                33.1843                26.2021

                    73                     74                     75
                     A                      A                      A
 Frequencies --  3020.4518              3026.8876              3027.6329
 Red. masses --     1.0453                 1.0959                 1.0380
 Frc consts  --     5.6185                 5.9160                 5.6061
 IR Inten    --    22.4732                35.3053                31.0209

                    76                     77                     78
                     A                      A                      A
 Frequencies --  3054.3375              3059.0932              3073.0564
 Red. masses --     1.0857                 1.0935                 1.1008
 Frc consts  --     5.9675                 6.0289                 6.1250
 IR Inten    --    27.4335                12.2678                 6.9604

                    79                     80                     81
                     A                      A                      A
 Frequencies --  3078.8791              3080.7118              3083.6305
 Red. masses --     1.1002                 1.0988                 1.1008
 Frc consts  --     6.1447                 6.1442                 6.1674
 IR Inten    --    15.2648                88.3609                66.6014

                    82                     83                     84
                     A                      A                      A
 Frequencies --  3093.4905              3094.3307              3101.3692
 Red. masses --     1.1021                 1.0990                 1.1027
 Frc consts  --     6.2139                 6.2000                 6.2489
 IR Inten    --    14.8871                62.1776                25.5758

 - Thermochemistry -
 -------------------
 Temperature   298.150 Kelvin.  Pressure   1.00000 Atm.
 Atom     1 has atomic number  6 and mass  12.00000

 Molecular mass:   159.13850 amu.
 Principal axes and moments of inertia in atomic units:
                           1         2         3
     Eigenvalues --  1017.350994050.800764741.08105
           X            0.99973   0.02235  -0.00675
           Y           -0.02214   0.99930   0.03000
           Z            0.00741  -0.02984   0.99953
 This molecule is an asymmetric top.
 Rotational symmetry number  1.
 Warning -- assumption of classical behavior for rotation
           may cause significant error
 Rotational temperatures (Kelvin)      0.08514     0.02138     0.01827
 Rotational constants (GHZ):           1.77396     0.44553     0.38066
    1 imaginary frequencies ignored.
 Zero-point vibrational energy     690075.1 (Joules/Mol)
                                  164.93191 (Kcal/Mol)
 Warning -- explicit consideration of  19 degrees of freedom as
           vibrations may cause significant error
 Vibrational temperatures:     45.68    62.64   109.57   135.56   153.80
          (Kelvin)            192.00   211.37   314.96   322.35   335.20
                              349.62   373.02   379.89   510.73   544.33
                              596.51   642.28   719.01   867.02   910.91
                             1082.83  1143.01  1159.32  1216.68  1236.94
                             1299.67  1338.58  1355.57  1361.57  1387.78
                             1417.59  1448.07  1485.13  1524.89  1533.84
                             1561.89  1617.11  1643.36  1684.65  1697.51
                             1714.18  1762.81  1832.06  1869.39  1894.13
                             1925.48  1929.66  1956.20  1973.27  1978.63
                             1998.70  2010.91  2019.46  2033.72  2048.00
                             2133.56  2141.32  2146.57  2152.98  2154.26
                             2163.01  2168.07  2169.76  2178.29  2803.25
                             4292.11  4305.93  4316.18  4330.71  4336.08
                             4344.52  4345.75  4355.01  4356.08  4394.50
                             4401.35  4421.44  4429.81  4432.45  4436.65
                             4450.84  4452.05  4462.17

 Zero-point correction=                           0.262836 (Hartree/Particle)
 Thermal correction to Energy=                    0.276818
 Thermal correction to Enthalpy=                  0.277762
 Thermal correction to Gibbs Free Energy=         0.220688
 Sum of electronic and zero-point Energies=           -504.532966
 Sum of electronic and thermal Energies=              -504.518984
 Sum of electronic and thermal Enthalpies=            -504.518040
 Sum of electronic and thermal Free Energies=         -504.575114

                     E (Thermal)             CV                S
                      KCal/Mol        Cal/Mol-Kelvin    Cal/Mol-Kelvin
 Total                  173.706             50.487            120.122
 Electronic               0.000              0.000              1.377
 Translational            0.889              2.981             41.103
 Rotational               0.889              2.981             31.347
 Vibrational            171.928             44.526             46.295
 Vibration     1          0.594              1.983              5.717
 Vibration     2          0.595              1.980              5.091
 Vibration     3          0.599              1.965              3.988
 Vibration     4          0.603              1.953              3.571
 Vibration     5          0.606              1.944              3.324
 Vibration     6          0.613              1.920              2.896
 Vibration     7          0.617              1.906              2.712
 Vibration     8          0.647              1.812              1.968
 Vibration     9          0.649              1.804              1.926
 Vibration    10          0.654              1.790              1.856
 Vibration    11          0.659              1.774              1.781
 Vibration    12          0.668              1.747              1.667
 Vibration    13          0.671              1.739              1.635
 Vibration    14          0.731              1.565              1.144
 Vibration    15          0.749              1.516              1.046
 Vibration    16          0.778              1.439              0.911
 Vibration    17          0.806              1.369              0.807
 Vibration    18          0.855              1.251              0.659
 Vibration    19          0.961              1.026              0.445

 Optimization completed.
    -- Stationary point found.
 Normal termination of Gaussian 09 at Fri Feb 21 13:32:37 2014.

 -----------------------------------------------------------
 #P Geom=AllCheck Guess=TCheck SCRF=Check CCSD(T)/6-31+G(d')
 -----------------------------------------------------------

 Structure from the checkpoint file:  TS_1_C9H18O_1.chk
 -------------------------------------------
 TS_1_C9H18O_1 using cbs-qb3 to calc. energy
 -------------------------------------------
 Charge =  0 Multiplicity = 2

 SCF Done:  E(UHF) =  -501.378777336     A.U. after   25 cycles
 E2 =    -0.1566718775D+01 EUMP2 =    -0.50294549611102D+03
 CCSD(T)
 CCSD(T)= -0.50313688840D+03
 \PMP3-0=-503.0507762\MP4SDQ=-503.0682952\CCSD=-503.0793643\CCSD(T)=-50
 Normal termination of Gaussian 09 at Sat Feb 22 06:34:53 2014.

 -----------------------------------------------------
 #P Geom=AllCheck Guess=TCheck SCRF=Check MP4SDQ/CBSB4
 -----------------------------------------------------

 Structure from the checkpoint file:  TS_1_C9H18O_1.chk
 -------------------------------------------
 TS_1_C9H18O_1 using cbs-qb3 to calc. energy
 -------------------------------------------
 Charge =  0 Multiplicity = 2

 SCF Done:  E(UHF) =  -501.407429561     A.U. after   18 cycles
 E2 =    -0.1694226150D+01 EUMP2 =    -0.50310165571132D+03
 Normal termination of Gaussian 09 at Sat Feb 22 07:07:22 2014.

 ----------------------------------------------------------------------
 #P Geom=AllCheck Guess=TCheck SCRF=Check MP2/CBSB3 CBSExtrap=(NMin=10,
 MinPop)
 ----------------------------------------------------------------------

 Structure from the checkpoint file:  TS_1_C9H18O_1.chk
 -------------------------------------------
 TS_1_C9H18O_1 using cbs-qb3 to calc. energy
 -------------------------------------------
 Charge =  0 Multiplicity = 2

                         Standard orientation:
 ---------------------------------------------------------------------
 Center     Atomic      Atomic             Coordinates (Angstroms)
 Number     Number       Type             X           Y           Z
 ---------------------------------------------------------------------
      1          6           0       -3.174409   -1.765389   -0.043871
      2          1           0       -2.853402   -2.808406    0.019233
      3          1           0       -3.374863   -1.531603   -1.092531
      4          1           0       -4.110262   -1.665098    0.512333
      5          6           0       -2.074080   -0.835978    0.518095
      6          1           0       -1.910236   -1.099792    1.570886
      7          6           0       -0.751718   -1.011708   -0.252295
      8          1           0       -0.575783   -2.086686   -0.373566
      9          1           0       -0.878021   -0.602099   -1.259814
     10          6           0        0.476942   -0.379730    0.413781
     11          1           0        0.579353   -0.770976    1.435004
     12          1           0        0.325408    0.699128    0.501860
     13          6           0        1.771271   -0.652943   -0.362648
     14          1           0        1.689766   -0.213486   -1.365903
     15          1           0        1.869150   -1.735811   -0.512470
     16          6           0        3.059632   -0.136437    0.305738
     17          1           0        3.105272   -0.570302    1.314527
     18          6           0        4.295614   -0.619367   -0.466136
     19          1           0        4.300060   -0.217816   -1.485418
     20          1           0        5.219633   -0.295013    0.021357
     21          1           0        4.320299   -1.710722   -0.538633
     22          6           0       -2.598197    0.582088    0.509326
     23          1           0       -3.405082    0.831057    1.205932
     24          1           0       -1.704492    1.544891    0.732678
     25          6           0        3.077827    1.392097    0.449297
     26          1           0        4.008568    1.728283    0.915483
     27          1           0        3.004022    1.875477   -0.531122
     28          1           0        2.252040    1.758772    1.063405
     29          8           0       -2.760400    1.182143   -0.735550
     30          8           0       -1.784441    2.247158   -0.334571
 ---------------------------------------------------------------------

 SCF Done:  E(UHF) =  -501.545747471     A.U. after   19 cycles
 E2 =    -0.1996691220D+01 EUMP2 =    -0.50354243869081D+03
 E2(CBS)=      -2.192193 CBS-Int=       0.065633 OIii=      17.244685

 The electronic state is 2-A.
 Alpha  occ. eigenvalues --  -20.66689 -20.62542 -11.31667 -11.24698 -11.22554
 Alpha  occ. eigenvalues --  -11.22324 -11.22224 -11.21677 -11.21403 -11.20772
 Alpha  occ. eigenvalues --  -11.20674  -1.49840  -1.23664  -1.10664  -1.08166
 Alpha  occ. eigenvalues --   -1.01505  -0.93866  -0.92556  -0.92070  -0.83349
 Alpha  occ. eigenvalues --   -0.79478  -0.76212  -0.72661  -0.69888  -0.64287
 Alpha  occ. eigenvalues --   -0.63495  -0.61086  -0.60111  -0.59276  -0.58557
 Alpha  occ. eigenvalues --   -0.57903  -0.57269  -0.55097  -0.53646  -0.53162
 Alpha  occ. eigenvalues --   -0.51652  -0.50476  -0.49878  -0.48342  -0.47253
 Alpha  occ. eigenvalues --   -0.45684  -0.45259  -0.44913  -0.44115  -0.41179
 Alpha virt. eigenvalues --    0.03710   0.04459   0.04838   0.05434   0.06091
 Alpha virt. eigenvalues --    0.06393   0.06957   0.07334   0.08306   0.08420
 Alpha virt. eigenvalues --    0.08914   0.09428   0.09752   0.10885   0.11729

  Beta  occ. eigenvalues --  -20.64079 -20.61975 -11.30030 -11.24786 -11.22431
  Beta  occ. eigenvalues --  -11.22323 -11.22194 -11.21686 -11.21404 -11.20772
  Beta  occ. eigenvalues --  -11.20674  -1.46599  -1.14704  -1.10428  -1.07930
  Beta  occ. eigenvalues --   -1.01270  -0.92561  -0.92304  -0.90634  -0.82838
  Beta  occ. eigenvalues --   -0.77851  -0.76108  -0.69994  -0.65152  -0.63938
  Beta  occ. eigenvalues --   -0.61770  -0.60397  -0.59437  -0.58384  -0.58015
  Beta  occ. eigenvalues --   -0.56953  -0.54476  -0.53215  -0.52879  -0.51292
  Beta  occ. eigenvalues --   -0.50406  -0.50003  -0.48906  -0.47401  -0.47063
  Beta  occ. eigenvalues --   -0.45564  -0.44893  -0.44461  -0.43476
  Beta virt. eigenvalues --    0.03726   0.04419   0.04754   0.05430   0.06067
  Beta virt. eigenvalues --    0.06188   0.06959   0.07302   0.08141   0.08334
  Beta virt. eigenvalues --    0.08631   0.08995   0.09564   0.09994   0.10913

 Mulliken atomic charges:
              1
     1  C   -0.346445
     2  H    0.055292
     3  H    0.077481
     4  H    0.102037
     5  C    1.451209
     6  H    0.070094
     7  C   -0.814831
     8  H    0.057761
     9  H    0.136532
    10  C   -0.017119
    11  H    0.056316
    12  H   -0.033347
    13  C   -0.876225
    14  H    0.084859
    15  H    0.029108
    16  C    1.004522
    17  H    0.030595
    18  C   -0.418133
    19  H    0.055287
    20  H    0.099101
    21  H    0.055839
    22  C   -0.458762
    23  H    0.148199
    24  H    0.088020
    25  C   -0.608098
    26  H    0.084319
    27  H    0.068412
    28  H    0.075372
    29  O   -0.173428
    30  O   -0.083969
 Sum of Mulliken atomic charges =   0.00000

 Dipole moment (field-independent basis, Debye):
    X=              0.0301    Y=             -2.0825    Z=              1.8805  Tot=              2.8060
 Quadrupole moment (field-independent basis, Debye-Ang):
   XX=            -72.2957   YY=            -75.5872   ZZ=            -71.7033
   XY=              4.6952   XZ=             -4.6463   YZ=              1.6496

    1 imaginary frequencies ignored.
 Normal termination of Gaussian 09 at Sat Feb 22 08:52:15 2014.
