 Gaussian 09, Revision A.01,
 Gaussian 09:  EM64L-G09RevA.01  8-May-2009

 -----------------------------------
 #p ub3lyp/6-31g(d) opt=modredundant
 -----------------------------------

 ---------------------------------------------------
 C3H7O2_62_b3631gd using cbs-qb3 to calculate energy
 ---------------------------------------------------
 Symbolic Z-matrix:
 Charge =  0 Multiplicity = 2

 SCF Done:  E(UB3LYP) =  -118.471371536     A.U. after   14 cycles
 Optimization completed.
    -- Stationary point found.
 SCF Done:  E(UB3LYP) =  -118.470638535     A.U. after   11 cycles
 SCF Done:  E(UB3LYP) =  -118.471213803     A.U. after   11 cycles
 SCF Done:  E(UB3LYP) =  -118.471288702     A.U. after   11 cycles
 SCF Done:  E(UB3LYP) =  -118.471315462     A.U. after   10 cycles
 SCF Done:  E(UB3LYP) =  -118.471319880     A.U. after   10 cycles
 SCF Done:  E(UB3LYP) =  -118.471319949     A.U. after    7 cycles
 Optimization completed.
 SCF Done:  E(UB3LYP) =  -118.470467289     A.U. after   12 cycles
 SCF Done:  E(UB3LYP) =  -118.471154899     A.U. after   12 cycles
 SCF Done:  E(UB3LYP) =  -118.471173148     A.U. after   11 cycles
 SCF Done:  E(UB3LYP) =  -118.470590295     A.U. after   15 cycles
 SCF Done:  E(UB3LYP) =  -118.471273304     A.U. after   15 cycles
 SCF Done:  E(UB3LYP) =  -118.471277843     A.U. after    9 cycles
 SCF Done:  E(UB3LYP) =  -118.470654036     A.U. after   15 cycles
 SCF Done:  E(UB3LYP) =  -118.471331461     A.U. after   15 cycles
 SCF Done:  E(UB3LYP) =  -118.471337549     A.U. after   10 cycles
    -- Stationary point found.
 SCF Done:  E(UB3LYP) =  -118.470693456     A.U. after   11 cycles
 SCF Done:  E(UB3LYP) =  -118.471365959     A.U. after   11 cycles
 SCF Done:  E(UB3LYP) =  -118.471371465     A.U. after   10 cycles
 SCF Done:  E(UB3LYP) =  -118.471371535     A.U. after    7 cycles
 Optimization completed.
    -- Stationary point found.

                         Standard orientation:
 ---------------------------------------------------------------------
 Center     Atomic      Atomic             Coordinates (Angstroms)
 Number     Number       Type             X           Y           Z
 ---------------------------------------------------------------------
      1          6           0        1.228049   -0.244575   -0.040467
      2          1           0        1.301410   -0.764823   -1.002037
      3          1           0        1.283749   -1.000832    0.751951
      4          1           0        2.101402    0.409608    0.059774
      5          6           0       -0.080181    0.554008    0.055069
      6          1           0       -0.078412    1.118362    1.007423
      7          1           0       -0.104053    1.325086   -0.728669
      8          6           0       -1.304679   -0.293914   -0.033560
      9          1           0       -1.302410   -1.310619    0.350041
     10          1           0       -2.260822    0.130103   -0.324731
 ---------------------------------------------------------------------

 The electronic state is 2-A.
 Alpha  occ. eigenvalues --  -10.18535 -10.18367 -10.17350  -0.77841  -0.67109
 Alpha  occ. eigenvalues --   -0.57922  -0.45137  -0.43684  -0.40350  -0.35648
 Alpha  occ. eigenvalues --   -0.34926  -0.33954  -0.19553
 Alpha virt. eigenvalues --    0.10503   0.13971   0.14697   0.15593   0.17474
 Alpha virt. eigenvalues --    0.18734   0.20248   0.24450   0.28043   0.51331
 Alpha virt. eigenvalues --    0.52170   0.54190   0.57689   0.59545   0.61951

  Beta  occ. eigenvalues --  -10.18623 -10.17318 -10.16987  -0.76932  -0.65372
  Beta  occ. eigenvalues --   -0.56437  -0.44569  -0.43004  -0.39804  -0.34981
  Beta  occ. eigenvalues --   -0.34345  -0.33635
  Beta virt. eigenvalues --   -0.03466   0.10719   0.14879   0.15270   0.15908
  Beta virt. eigenvalues --    0.17595   0.18967   0.20734   0.24943   0.28683
  Beta virt. eigenvalues --    0.51670   0.52469   0.55893   0.59097   0.63289

 Mulliken atomic charges:
              1
     1  C   -0.440750
     2  H    0.149163
     3  H    0.143833
     4  H    0.141528
     5  C   -0.256413
     6  H    0.145045
     7  H    0.142549
     8  C   -0.303528
     9  H    0.139306
    10  H    0.139267
 Sum of Mulliken atomic charges =   0.00000

 Dipole moment (field-independent basis, Debye):
    X=              0.1243    Y=              0.1820    Z=              0.1210  Tot=              0.2514
 Quadrupole moment (field-independent basis, Debye-Ang):
   XX=            -20.8075   YY=            -20.3794   ZZ=            -21.1678
   XY=             -0.0523   XZ=              0.1072   YZ=             -0.4545

 Normal termination of Gaussian 09 at Wed Apr  1 22:32:31 2015.
