 Gaussian 09, Revision C.01,
 Gaussian 09:  EM64L-G09RevC.01 23-Sep-2011

 ----------------------------------------
 # cbs-qb3 opt=(calcfc,modredundant) freq
 ----------------------------------------

 99/9=1/99;
 -----------------------------------------
 C9H19O2_1_26 using CBS-QB3 to cal. energy
 -----------------------------------------
 Charge =  0 Multiplicity = 2

 SCF Done:  E(UB3LYP) =  -504.870410091     A.U. after   19 cycles
 SCF Done:  E(UB3LYP) =  -504.870478702     A.U. after   15 cycles
 SCF Done:  E(UB3LYP) =  -504.870484882     A.U. after   14 cycles
 SCF Done:  E(UB3LYP) =  -504.870485673     A.U. after   13 cycles
 Optimization completed.
    -- Stationary point found.
 Normal termination of Gaussian 09 at Mon Feb  3 14:26:57 2014.

 ---------------------------------------------------------
 #N Geom=AllCheck Guess=TCheck SCRF=Check B3LYP/CBSB7 Freq
 ---------------------------------------------------------

 Structure from the checkpoint file:  C9H19O2_1_26.chk
 -----------------------------------------
 C9H19O2_1_26 using CBS-QB3 to cal. energy
 -----------------------------------------
 Charge =  0 Multiplicity = 2

 SCF Done:  E(UB3LYP) =  -504.870485673     A.U. after    1 cycles

  Exact polarizability: 131.621   6.804 107.731  -4.166  -0.411  98.531
 Approx polarizability: 156.832   7.621 153.212  -5.683  -7.591 151.877

                     1                      2                      3
                     A                      A                      A
 Frequencies --    34.1913                39.5106                63.6701
 Red. masses --     2.8922                 4.9869                 6.6666
 Frc consts  --     0.0020                 0.0046                 0.0159
 IR Inten    --     0.4550                 1.3118                 0.5052

                     4                      5                      6
                     A                      A                      A
 Frequencies --    92.0734                94.9265               123.1166
 Red. masses --     3.1671                 3.6536                 1.7552
 Frc consts  --     0.0158                 0.0194                 0.0157
 IR Inten    --     0.1864                 2.0268                 0.1216

                     7                      8                      9
                     A                      A                      A
 Frequencies --   161.1106               214.4542               226.6185
 Red. masses --     2.4636                 1.6481                 1.2854
 Frc consts  --     0.0377                 0.0447                 0.0389
 IR Inten    --     0.4801                 0.3416                 0.6022

                    10                     11                     12
                     A                      A                      A
 Frequencies --   229.7886               245.2517               252.6113
 Red. masses --     1.6143                 2.7336                 1.9396
 Frc consts  --     0.0502                 0.0969                 0.0729
 IR Inten    --     0.6075                 0.9447                 0.7993

                    13                     14                     15
                     A                      A                      A
 Frequencies --   261.1551               360.1342               377.7447
 Red. masses --     1.1569                 2.5719                 2.4813
 Frc consts  --     0.0465                 0.1965                 0.2086
 IR Inten    --     0.1160                 0.4914                 0.8331

                    16                     17                     18
                     A                      A                      A
 Frequencies --   415.4444               450.4696               487.3369
 Red. masses --     2.2620                 2.2249                 2.6648
 Frc consts  --     0.2300                 0.2660                 0.3729
 IR Inten    --     0.4955                 0.4754                 1.9153

                    19                     20                     21
                     A                      A                      A
 Frequencies --   505.7188               597.4609               749.1628
 Red. masses --     2.5040                 2.6014                 1.1420
 Frc consts  --     0.3773                 0.5471                 0.3776
 IR Inten    --     1.1572                 2.5061                 4.6450

                    22                     23                     24
                     A                      A                      A
 Frequencies --   784.6446               822.8866               844.5136
 Red. masses --     3.1052                 2.2671                 1.6663
 Frc consts  --     1.1264                 0.9045                 0.7002
 IR Inten    --     2.1114                 1.4349                 3.6522

                    25                     26                     27
                     A                      A                      A
 Frequencies --   879.3622               930.2658               937.3942
 Red. masses --     2.5349                 1.2494                 1.8778
 Frc consts  --     1.1549                 0.6370                 0.9722
 IR Inten    --    10.6302                 1.8591                 0.9837

                    28                     29                     30
                     A                      A                      A
 Frequencies --   943.4216               964.9694               967.0336
 Red. masses --     1.6943                 1.4547                 1.7063
 Frc consts  --     0.8885                 0.7981                 0.9401
 IR Inten    --     1.0297                 0.8890                 3.9767

                    31                     32                     33
                     A                      A                      A
 Frequencies --   991.6180              1029.5838              1043.3324
 Red. masses --     1.7301                 3.5473                 1.4167
 Frc consts  --     1.0023                 2.2155                 0.9086
 IR Inten    --     0.0092                 0.2957                 1.0542

                    34                     35                     36
                     A                      A                      A
 Frequencies --  1059.8949              1112.5846              1133.7441
 Red. masses --     2.3070                 1.7849                 1.5860
 Frc consts  --     1.5269                 1.3018                 1.2011
 IR Inten    --     0.4306                 0.1186                 2.0055

                    37                     38                     39
                     A                      A                      A
 Frequencies --  1145.1571              1170.3748              1191.0609
 Red. masses --     3.0015                 2.8938                 1.7785
 Frc consts  --     2.3191                 2.3355                 1.4865
 IR Inten    --     4.0290                 1.8373                 3.9701

                    40                     41                     42
                     A                      A                      A
 Frequencies --  1196.8180              1225.0981              1271.9902
 Red. masses --     2.4171                 1.6609                 1.2351
 Frc consts  --     2.0399                 1.4687                 1.1774
 IR Inten    --     0.7485                 1.5124                 0.1819

                    43                     44                     45
                     A                      A                      A
 Frequencies --  1286.1239              1303.0553              1324.5152
 Red. masses --     1.3000                 1.2778                 1.2979
 Frc consts  --     1.2670                 1.2783                 1.3415
 IR Inten    --    11.1110                 0.6805                 1.0744

                    46                     47                     48
                     A                      A                      A
 Frequencies --  1339.1479              1356.0091              1358.8012
 Red. masses --     1.1327                 1.3675                 1.3422
 Frc consts  --     1.1968                 1.4815                 1.4601
 IR Inten    --     0.8483                 3.4497                 2.3006

                    49                     50                     51
                     A                      A                      A
 Frequencies --  1372.8203              1383.2162              1390.7119
 Red. masses --     1.3261                 1.3269                 1.4226
 Frc consts  --     1.4725                 1.4958                 1.6211
 IR Inten    --     3.6548                 4.3553                 1.2459

                    52                     53                     54
                     A                      A                      A
 Frequencies --  1400.3675              1405.7632              1418.7365
 Red. masses --     1.4309                 1.3262                 1.2473
 Frc consts  --     1.6533                 1.5442                 1.4792
 IR Inten    --     1.7232                 9.0034                 6.7286

                    55                     56                     57
                     A                      A                      A
 Frequencies --  1423.8780              1477.6134              1483.3620
 Red. masses --     1.2384                 1.0861                 1.0719
 Frc consts  --     1.4794                 1.3972                 1.3896
 IR Inten    --     6.1398                10.5679                 0.1878

                    58                     59                     60
                     A                      A                      A
 Frequencies --  1488.5077              1492.2602              1498.1363
 Red. masses --     1.0761                 1.0439                 1.0587
 Frc consts  --     1.4048                 1.3696                 1.3999
 IR Inten    --     1.5200                 0.7926                 2.1803

                    61                     62                     63
                     A                      A                      A
 Frequencies --  1501.8457              1505.5070              1507.7199
 Red. masses --     1.0457                 1.0734                 1.0531
 Frc consts  --     1.3897                 1.4334                 1.4104
 IR Inten    --     7.3133                 0.9407                 6.3277

                    64                     65                     66
                     A                      A                      A
 Frequencies --  1509.3302              1514.2547              2983.1202
 Red. masses --     1.0733                 1.0536                 1.0807
 Frc consts  --     1.4406                 1.4234                 5.6665
 IR Inten    --     6.8971                16.6213                 7.8914

                    67                     68                     69
                     A                      A                      A
 Frequencies --  2988.6279              2991.5171              2997.3769
 Red. masses --     1.0790                 1.0679                 1.0660
 Frc consts  --     5.6784                 5.6309                 5.6427
 IR Inten    --     8.2033                 5.6450                42.4773

                    70                     71                     72
                     A                      A                      A
 Frequencies --  3012.6161              3013.8694              3020.4289
 Red. masses --     1.0582                 1.0396                 1.0379
 Frc consts  --     5.6585                 5.5639                 5.5788
 IR Inten    --    16.2602                56.6074                23.9724

                    73                     74                     75
                     A                      A                      A
 Frequencies --  3026.4417              3028.2200              3046.8880
 Red. masses --     1.0992                 1.0364                 1.0957
 Frc consts  --     5.9317                 5.5993                 5.9929
 IR Inten    --    29.3327                31.1775                14.9624

                    76                     77                     78
                     A                      A                      A
 Frequencies --  3064.5049              3072.8867              3076.6486
 Red. masses --     1.0613                 1.1007                 1.0968
 Frc consts  --     5.8721                 6.1237                 6.1169
 IR Inten    --    25.6360                 4.1931                19.4901

                    79                     80                     81
                     A                      A                      A
 Frequencies --  3079.6402              3083.1751              3089.5468
 Red. masses --     1.1000                 1.1011                 1.1005
 Frc consts  --     6.1469                 6.1670                 6.1893
 IR Inten    --    83.8154                63.3488                35.8356

                    82                     83                     84
                     A                      A                      A
 Frequencies --  3094.1365              3100.9691              3131.1137
 Red. masses --     1.0990                 1.1023                 1.1067
 Frc consts  --     6.1993                 6.2449                 6.3925
 IR Inten    --    47.5440                28.9198                13.6894

 - Thermochemistry -
 -------------------
 Temperature   298.150 Kelvin.  Pressure   1.00000 Atm.
 Atom     1 has atomic number  6 and mass  12.00000

 Molecular mass:   159.13850 amu.
 Principal axes and moments of inertia in atomic units:
                           1         2         3
     Eigenvalues --   978.297254122.343754694.98593
           X            0.99973   0.02255  -0.00567
           Y           -0.02229   0.99882   0.04326
           Z            0.00664  -0.04312   0.99905
 This molecule is an asymmetric top.
 Rotational symmetry number  1.
 Warning -- assumption of classical behavior for rotation
           may cause significant error
 Rotational temperatures (Kelvin)      0.08854     0.02101     0.01845
 Rotational constants (GHZ):           1.84478     0.43779     0.38440
 Zero-point vibrational energy     707418.3 (Joules/Mol)
                                  169.07704 (Kcal/Mol)
 Warning -- explicit consideration of  20 degrees of freedom as
           vibrations may cause significant error
 Vibrational temperatures:     49.19    56.85    91.61   132.47   136.58
          (Kelvin)            177.14   231.80   308.55   326.05   330.61
                              352.86   363.45   375.74   518.15   543.49
                              597.73   648.12   701.17   727.62   859.61
                             1077.88  1128.93  1183.95  1215.07  1265.20
                             1338.44  1348.70  1357.37  1388.37  1391.34
                             1426.72  1481.34  1501.12  1524.95  1600.76
                             1631.20  1647.62  1683.91  1713.67  1721.95
                             1762.64  1830.11  1850.44  1874.80  1905.68
                             1926.73  1950.99  1955.01  1975.18  1990.14
                             2000.92  2014.81  2022.58  2041.24  2048.64
                             2125.95  2134.22  2141.63  2147.03  2155.48
                             2160.82  2166.09  2169.27  2171.59  2178.67
                             4292.04  4299.96  4304.12  4312.55  4334.48
                             4336.28  4345.72  4354.37  4356.93  4383.79
                             4409.13  4421.19  4426.61  4430.91  4436.00
                             4445.16  4451.77  4461.60  4504.97

 Zero-point correction=                           0.269441 (Hartree/Particle)
 Thermal correction to Energy=                    0.283532
 Thermal correction to Enthalpy=                  0.284476
 Thermal correction to Gibbs Free Energy=         0.226992
 Sum of electronic and zero-point Energies=           -504.601044
 Sum of electronic and thermal Energies=              -504.586954
 Sum of electronic and thermal Enthalpies=            -504.586010
 Sum of electronic and thermal Free Energies=         -504.643493

                     E (Thermal)             CV                S
                      KCal/Mol        Cal/Mol-Kelvin    Cal/Mol-Kelvin
 Total                  177.919             50.512            120.984
 Electronic               0.000              0.000              1.377
 Translational            0.889              2.981             41.103
 Rotational               0.889              2.981             31.316
 Vibrational            176.141             44.550             47.188
 Vibration     1          0.594              1.983              5.570
 Vibration     2          0.594              1.981              5.283
 Vibration     3          0.597              1.972              4.340
 Vibration     4          0.602              1.955              3.616
 Vibration     5          0.603              1.953              3.556
 Vibration     6          0.610              1.930              3.051
 Vibration     7          0.622              1.890              2.537
 Vibration     8          0.644              1.819              2.005
 Vibration     9          0.650              1.800              1.906
 Vibration    10          0.652              1.796              1.881
 Vibration    11          0.660              1.771              1.764
 Vibration    12          0.664              1.758              1.712
 Vibration    13          0.669              1.744              1.654
 Vibration    14          0.735              1.554              1.122
 Vibration    15          0.748              1.518              1.048
 Vibration    16          0.779              1.437              0.908
 Vibration    17          0.809              1.360              0.794
 Vibration    18          0.843              1.278              0.691
 Vibration    19          0.861              1.237              0.644
 Vibration    20          0.955              1.037              0.454

 Optimization completed.
    -- Stationary point found.
 Normal termination of Gaussian 09 at Mon Feb  3 14:33:51 2014.

 -----------------------------------------------------------
 #N Geom=AllCheck Guess=TCheck SCRF=Check CCSD(T)/6-31+G(d')
 -----------------------------------------------------------

 Structure from the checkpoint file:  C9H19O2_1_26.chk
 -----------------------------------------
 C9H19O2_1_26 using CBS-QB3 to cal. energy
 -----------------------------------------
 Charge =  0 Multiplicity = 2

 SCF Done:  E(UHF) =  -501.481944444     A.U. after   23 cycles
 E2 =    -0.1557576881D+01 EUMP2 =    -0.50303952132476D+03
 CCSD(T)= -0.50321854116D+03
 0=-503.1327405\MP4SDQ=-503.1593312\CCSD=-503.1647682\CCSD(T)=-503.2185
 Normal termination of Gaussian 09 at Tue Feb  4 00:29:17 2014.

 -----------------------------------------------------
 #N Geom=AllCheck Guess=TCheck SCRF=Check MP4SDQ/CBSB4
 -----------------------------------------------------

 Structure from the checkpoint file:  C9H19O2_1_26.chk
 -----------------------------------------
 C9H19O2_1_26 using CBS-QB3 to cal. energy
 -----------------------------------------
 Charge =  0 Multiplicity = 2

 SCF Done:  E(UHF) =  -501.505935264     A.U. after   18 cycles
 E2 =    -0.1682940310D+01 EUMP2 =    -0.50318887557403D+03
 Normal termination of Gaussian 09 at Tue Feb  4 00:47:55 2014.

 ----------------------------------------------------------------------
 #N Geom=AllCheck Guess=TCheck SCRF=Check MP2/CBSB3 CBSExtrap=(NMin=10,
 MinPop)
 ----------------------------------------------------------------------

 Structure from the checkpoint file:  C9H19O2_1_26.chk
 -----------------------------------------
 C9H19O2_1_26 using CBS-QB3 to cal. energy
 -----------------------------------------
 Charge =  0 Multiplicity = 2

                         Standard orientation:
 ---------------------------------------------------------------------
 Center     Atomic      Atomic             Coordinates (Angstroms)
 Number     Number       Type             X           Y           Z
 ---------------------------------------------------------------------
      1          6           0       -3.191382   -1.645962   -0.203875
      2          1           0       -2.899103   -2.685254   -0.372780
      3          1           0       -3.421665   -1.199072   -1.174237
      4          1           0       -4.110028   -1.648624    0.390292
      5          6           0       -2.067032   -0.874088    0.503227
      6          1           0       -1.892490   -1.343495    1.482128
      7          6           0       -0.750684   -0.944585   -0.294365
      8          1           0       -0.561775   -2.000850   -0.520631
      9          1           0       -0.887974   -0.447747   -1.261468
     10          6           0        0.481602   -0.359851    0.407867
     11          1           0        0.574359   -0.799989    1.410326
     12          1           0        0.343851    0.715671    0.544463
     13          6           0        1.776760   -0.615907   -0.373814
     14          1           0        1.701816   -0.142569   -1.362161
     15          1           0        1.866811   -1.693755   -0.559810
     16          6           0        3.067501   -0.131907    0.314088
     17          1           0        3.100338   -0.587694    1.313660
     18          6           0        4.302079   -0.615341   -0.459879
     19          1           0        4.317288   -0.194607   -1.471298
     20          1           0        5.227267   -0.311806    0.038757
     21          1           0        4.313704   -1.705342   -0.553116
     22          6           0       -2.509550    0.554428    0.835199
     23          1           0       -3.441988    0.549790    1.404497
     24          1           0       -1.749862    1.123294    1.370048
     25          6           0        3.106435    1.392912    0.489851
     26          1           0        4.036857    1.705745    0.972726
     27          1           0        3.050644    1.897011   -0.481306
     28          1           0        2.279200    1.759236    1.102190
     29          8           0       -2.838273    1.313632   -0.368858
     30          8           0       -1.804429    1.992851   -0.828901
 ---------------------------------------------------------------------

 SCF Done:  E(UHF) =  -501.643807159     A.U. after   18 cycles
 E2 =    -0.1983653334D+01 EUMP2 =    -0.50362746049270D+03
 E2(CBS)=      -2.177034 CBS-Int=       0.065333 OIii=      17.371415

 The electronic state is 2-A.
 Alpha  occ. eigenvalues --  -20.66996 -20.65348 -11.29002 -11.23895 -11.22333
 Alpha  occ. eigenvalues --  -11.22006 -11.21675 -11.21640 -11.21397 -11.20786
 Alpha  occ. eigenvalues --  -11.20716  -1.56278  -1.21052  -1.10287  -1.07768
 Alpha  occ. eigenvalues --   -1.01144  -0.93126  -0.92575  -0.91702  -0.82965
 Alpha  occ. eigenvalues --   -0.78139  -0.76188  -0.75524  -0.69907  -0.67786
 Alpha  occ. eigenvalues --   -0.65100  -0.62688  -0.60780  -0.59875  -0.58935
 Alpha  occ. eigenvalues --   -0.58050  -0.55648  -0.53311  -0.53186  -0.52621
 Alpha  occ. eigenvalues --   -0.51460  -0.50779  -0.49614  -0.49306  -0.47570
 Alpha  occ. eigenvalues --   -0.46612  -0.45533  -0.45377  -0.44623  -0.43303
 Alpha virt. eigenvalues --    0.03731   0.04475   0.04882   0.05461   0.06146
 Alpha virt. eigenvalues --    0.06376   0.06906   0.07440   0.08179   0.08302
 Alpha virt. eigenvalues --    0.08994   0.09402   0.09818   0.10900   0.11612

  Beta  occ. eigenvalues --  -20.64385 -20.62955 -11.29064 -11.23877 -11.22333
  Beta  occ. eigenvalues --  -11.22006 -11.21675 -11.21642 -11.21397 -11.20786
  Beta  occ. eigenvalues --  -11.20715  -1.50000  -1.13618  -1.09615  -1.06710
  Beta  occ. eigenvalues --   -1.00820  -0.92600  -0.92481  -0.91193  -0.82842
  Beta  occ. eigenvalues --   -0.77642  -0.76135  -0.68703  -0.67547  -0.65385
  Beta  occ. eigenvalues --   -0.63287  -0.60544  -0.59989  -0.58555  -0.58002
  Beta  occ. eigenvalues --   -0.55797  -0.54161  -0.53190  -0.52874  -0.51309
  Beta  occ. eigenvalues --   -0.50591  -0.49293  -0.49181  -0.47121  -0.46278
  Beta  occ. eigenvalues --   -0.45551  -0.44952  -0.44447  -0.43313
  Beta virt. eigenvalues --    0.03714   0.04473   0.04841   0.05466   0.06145
  Beta virt. eigenvalues --    0.06380   0.06905   0.07352   0.08097   0.08269
  Beta virt. eigenvalues --    0.08984   0.09408   0.09826   0.10846   0.11267

 Mulliken atomic charges:
              1
     1  C   -0.355391
     2  H    0.055518
     3  H    0.087146
     4  H    0.090062
     5  C    0.956368
     6  H    0.048227
     7  C   -0.603030
     8  H    0.063862
     9  H    0.067576
    10  C    0.105452
    11  H    0.062057
    12  H   -0.030460
    13  C   -0.861808
    14  H    0.094010
    15  H    0.023956
    16  C    1.020910
    17  H    0.029685
    18  C   -0.414320
    19  H    0.054056
    20  H    0.099224
    21  H    0.056209
    22  C   -0.396094
    23  H    0.134655
    24  H    0.134927
    25  C   -0.606139
    26  H    0.086492
    27  H    0.066572
    28  H    0.074495
    29  O   -0.076913
    30  O   -0.067302
 Sum of Mulliken atomic charges =   0.00000

 Dipole moment (field-independent basis, Debye):
    X=              0.2599    Y=             -1.6670    Z=              1.8822  Tot=              2.5277
 Quadrupole moment (field-independent basis, Debye-Ang):
   XX=            -73.6955   YY=            -74.5795   ZZ=            -71.1745
   XY=              3.8479   XZ=             -4.6357   YZ=              2.0385

 Normal termination of Gaussian 09 at Tue Feb  4 01:49:27 2014.
