 Gaussian 09, Revision C.01,
 Gaussian 09:  EM64L-G09RevC.01 23-Sep-2011

 -------------------------------
 #p cbs-qb3 opt=(TS,calcfc) freq
 -------------------------------

 (Enter /usr/caen/gaussian-09revc/g09/l101.exe)
 ------------------------------------
 TS_1_1b using cbs-qb3 to cal. energy
 ------------------------------------
 Charge =  0 Multiplicity = 2

 SCF Done:  E(UB3LYP) =  -504.825743195     A.U. after   18 cycles
 SCF Done:  E(UB3LYP) =  -504.825767745     A.U. after   13 cycles
 SCF Done:  E(UB3LYP) =  -504.825767908     A.U. after   11 cycles
 Optimization completed on the basis of negligible forces.
    -- Stationary point found.
 Normal termination of Gaussian 09 at Mon Feb 17 01:55:08 2014.

 ---------------------------------------------------------
 #P Geom=AllCheck Guess=TCheck SCRF=Check B3LYP/CBSB7 Freq
 ---------------------------------------------------------

 Structure from the checkpoint file:  TS_1_1b.chk
 ------------------------------------
 TS_1_1b using cbs-qb3 to cal. energy
 ------------------------------------
 Charge =  0 Multiplicity = 2

 SCF Done:  E(UB3LYP) =  -504.825767908     A.U. after    1 cycles

  Exact polarizability: 136.531   2.262 116.604   1.340   0.101  98.525
 Approx polarizability: 162.570   2.382 176.096   8.550  -7.754 154.671

 ******    1 imaginary frequencies (negative Signs) ******

                     1                      2                      3
                     A                      A                      A
 Frequencies -- -1635.1830                18.9918                41.7024
 Red. masses --     1.1122                 2.8434                 4.3382
 Frc consts  --     1.7522                 0.0006                 0.0044
 IR Inten    --   304.2474                 0.7256                 1.5098

                     4                      5                      6
                     A                      A                      A
 Frequencies --    75.1688                98.0265               113.1610
 Red. masses --     3.6133                 2.7924                 1.8149
 Frc consts  --     0.0120                 0.0158                 0.0137
 IR Inten    --     1.1115                 0.1203                 0.2780

                     7                      8                      9
                     A                      A                      A
 Frequencies --   146.4585               219.0369               221.3222
 Red. masses --     2.6631                 2.1913                 1.1942
 Frc consts  --     0.0337                 0.0619                 0.0345
 IR Inten    --     0.4307                 0.3251                 0.0135

                    10                     11                     12
                     A                      A                      A
 Frequencies --   242.5071               253.2803               296.5155
 Red. masses --     2.5352                 1.1904                 3.0601
 Frc consts  --     0.0878                 0.0450                 0.1585
 IR Inten    --     0.1944                 0.0943                 3.9659

                    13                     14                     15
                     A                      A                      A
 Frequencies --   369.7402               385.0100               418.6351
 Red. masses --     2.2972                 2.0531                 1.7441
 Frc consts  --     0.1850                 0.1793                 0.1801
 IR Inten    --     0.3546                 1.3750                 0.6667

                    16                     17                     18
                     A                      A                      A
 Frequencies --   445.7884               451.7664               476.1579
 Red. masses --     2.2233                 2.1786                 2.5191
 Frc consts  --     0.2603                 0.2620                 0.3365
 IR Inten    --     0.6886                 3.7451                 0.6376

                    19                     20                     21
                     A                      A                      A
 Frequencies --   517.0934               599.3058               671.0898
 Red. masses --     3.6670                 3.0194                 2.1922
 Frc consts  --     0.5777                 0.6390                 0.5817
 IR Inten    --     1.4686                 0.7235                 5.0005

                    22                     23                     24
                     A                      A                      A
 Frequencies --   749.0799               786.8844               832.9452
 Red. masses --     1.2106                 2.7870                 2.6657
 Frc consts  --     0.4002                 1.0167                 1.0897
 IR Inten    --     5.2144                 3.9340                 2.2905

                    25                     26                     27
                     A                      A                      A
 Frequencies --   858.9918               892.8190               923.0780
 Red. masses --     1.4401                 3.5662                 1.7320
 Frc consts  --     0.6261                 1.6749                 0.8695
 IR Inten    --     1.0158                29.7252                 3.7541

                    28                     29                     30
                     A                      A                      A
 Frequencies --   929.7347               947.9049               964.0904
 Red. masses --     1.2129                 1.7275                 1.4602
 Frc consts  --     0.6177                 0.9146                 0.7996
 IR Inten    --     0.4906                 0.8607                 0.2945

                    31                     32                     33
                     A                      A                      A
 Frequencies --   967.2854               997.8435              1012.8882
 Red. masses --     2.0636                 1.6238                 3.4681
 Frc consts  --     1.1376                 0.9526                 2.0963
 IR Inten    --     6.3178                 0.1498                 3.2707

                    34                     35                     36
                     A                      A                      A
 Frequencies --  1030.2078              1044.8038              1057.4904
 Red. masses --     3.5276                 1.4962                 2.4303
 Frc consts  --     2.2059                 0.9623                 1.6013
 IR Inten    --     1.4372                 2.9982                 1.4743

                    37                     38                     39
                     A                      A                      A
 Frequencies --  1097.0850              1106.8005              1126.4868
 Red. masses --     1.3585                 2.1767                 1.1450
 Frc consts  --     0.9633                 1.5710                 0.8561
 IR Inten    --    11.4634                 3.3790                11.0372

                    40                     41                     42
                     A                      A                      A
 Frequencies --  1155.7657              1187.3271              1190.9050
 Red. masses --     2.3962                 2.0361                 1.7677
 Frc consts  --     1.8859                 1.6912                 1.4771
 IR Inten    --     0.7560                 1.2600                 5.1349

                    43                     44                     45
                     A                      A                      A
 Frequencies --  1216.7253              1234.6277              1276.7875
 Red. masses --     1.4916                 1.4150                 1.3229
 Frc consts  --     1.3010                 1.2708                 1.2706
 IR Inten    --     7.7845                 4.6232                 2.0792

                    46                     47                     48
                     A                      A                      A
 Frequencies --  1281.9308              1309.2005              1333.2201
 Red. masses --     1.2352                 1.3201                 1.1956
 Frc consts  --     1.1960                 1.3331                 1.2521
 IR Inten    --     3.7893                 1.6332                 0.9023

                    49                     50                     51
                     A                      A                      A
 Frequencies --  1344.3752              1352.0819              1369.4794
 Red. masses --     1.1081                 1.3673                 1.3057
 Frc consts  --     1.1800                 1.4727                 1.4428
 IR Inten    --     2.1354                 3.3456                 3.3998

                    52                     53                     54
                     A                      A                      A
 Frequencies --  1372.3573              1391.3002              1401.1773
 Red. masses --     1.3007                 1.4400                 1.4274
 Frc consts  --     1.4433                 1.6423                 1.6512
 IR Inten    --     7.2892                 1.0919                 5.2943

                    55                     56                     57
                     A                      A                      A
 Frequencies --  1404.6191              1422.5404              1457.4267
 Red. masses --     1.3663                 1.2438                 1.1360
 Frc consts  --     1.5882                 1.4830                 1.4217
 IR Inten    --     3.3100                 6.0217                 3.0568

                    58                     59                     60
                     A                      A                      A
 Frequencies --  1475.7797              1482.1723              1489.2650
 Red. masses --     1.0914                 1.0717                 1.0786
 Frc consts  --     1.4004                 1.3871                 1.4095
 IR Inten    --     4.6883                 0.8250                 1.0320

                    61                     62                     63
                     A                      A                      A
 Frequencies --  1492.0345              1496.8470              1506.0650
 Red. masses --     1.0448                 1.0581                 1.0667
 Frc consts  --     1.3704                 1.3968                 1.4255
 IR Inten    --     0.9363                 1.2849                 5.2608

                    64                     65                     66
                     A                      A                      A
 Frequencies --  1507.6351              1514.0113              1580.0568
 Red. masses --     1.0814                 1.0523                 1.0529
 Frc consts  --     1.4482                 1.4212                 1.5488
 IR Inten    --     2.9228                16.7789                30.1975

                    67                     68                     69
                     A                      A                      A
 Frequencies --  2964.8472              2984.2888              2993.7493
 Red. masses --     1.0812                 1.0806                 1.0628
 Frc consts  --     5.5999                 5.6704                 5.6124
 IR Inten    --    11.8341                 8.1518                 2.8903

                    70                     71                     72
                     A                      A                      A
 Frequencies --  3001.5258              3013.5155              3017.4696
 Red. masses --     1.0655                 1.0362                 1.0608
 Frc consts  --     5.6556                 5.5442                 5.6907
 IR Inten    --    38.5074                29.3872                31.5845

                    73                     74                     75
                     A                      A                      A
 Frequencies --  3019.5816              3026.3701              3036.4861
 Red. masses --     1.0410                 1.0953                 1.0634
 Frc consts  --     5.5926                 5.9105                 5.7770
 IR Inten    --    29.8906                17.3859                39.5180

                    76                     77                     78
                     A                      A                      A
 Frequencies --  3047.5964              3066.9869              3072.9405
 Red. masses --     1.0944                 1.1025                 1.1004
 Frc consts  --     5.9889                 6.1100                 6.1224
 IR Inten    --    15.4629                46.6731                12.5956

                    79                     80                     81
                     A                      A                      A
 Frequencies --  3079.3393              3084.0379              3087.1317
 Red. masses --     1.1000                 1.1014                 1.0530
 Frc consts  --     6.1453                 6.1723                 5.9127
 IR Inten    --    75.8131                53.4981                18.3097

                    82                     83                     84
                     A                      A                      A
 Frequencies --  3091.7290              3111.3557              3174.2021
 Red. masses --     1.0998                 1.1023                 1.1137
 Frc consts  --     6.1942                 6.2873                 6.6115
 IR Inten    --    47.8090                18.2322                12.7753

 - Thermochemistry -
 -------------------
 Temperature   298.150 Kelvin.  Pressure   1.00000 Atm.
 Atom     1 has atomic number  6 and mass  12.00000

 Molecular mass:   159.13850 amu.
 Principal axes and moments of inertia in atomic units:
                           1         2         3
     Eigenvalues --   736.074414918.961925228.94044
           X            0.99987   0.01330  -0.00938
           Y           -0.01274   0.99828   0.05730
           Z            0.01012  -0.05718   0.99831
 This molecule is an asymmetric top.
 Rotational symmetry number  1.
 Warning -- assumption of classical behavior for rotation
           may cause significant error
 Rotational temperatures (Kelvin)      0.11767     0.01761     0.01656
 Rotational constants (GHZ):           2.45185     0.36689     0.34514
    1 imaginary frequencies ignored.
 Zero-point vibrational energy     690879.6 (Joules/Mol)
                                  165.12418 (Kcal/Mol)
 Warning -- explicit consideration of  19 degrees of freedom as
           vibrations may cause significant error
 Vibrational temperatures:     27.32    60.00   108.15   141.04   162.81
          (Kelvin)            210.72   315.14   318.43   348.91   364.41
                              426.62   531.97   553.94   602.32   641.39
                              649.99   685.08   743.98   862.27   965.55
                             1077.76  1132.15  1198.42  1235.90  1284.57
                             1328.10  1337.68  1363.82  1387.11  1391.71
                             1435.67  1457.32  1482.24  1503.24  1521.49
                             1578.46  1592.44  1620.76  1662.89  1708.30
                             1713.44  1750.59  1776.35  1837.01  1844.41
                             1883.65  1918.20  1934.25  1945.34  1970.37
                             1974.51  2001.77  2015.98  2020.93  2046.72
                             2096.91  2123.32  2132.51  2142.72  2146.70
                             2153.63  2166.89  2169.15  2178.32  2273.35
                             4265.75  4293.72  4307.33  4318.52  4335.77
                             4341.46  4344.50  4354.27  4368.82  4384.81
                             4412.70  4421.27  4430.48  4437.24  4441.69
                             4448.30  4476.54  4566.96

 Zero-point correction=                           0.263142 (Hartree/Particle)
 Thermal correction to Energy=                    0.276370
 Thermal correction to Enthalpy=                  0.277315
 Thermal correction to Gibbs Free Energy=         0.221509
 Sum of electronic and zero-point Energies=           -504.562626
 Sum of electronic and thermal Energies=              -504.549398
 Sum of electronic and thermal Enthalpies=            -504.548453
 Sum of electronic and thermal Free Energies=         -504.604259

                     E (Thermal)             CV                S
                      KCal/Mol        Cal/Mol-Kelvin    Cal/Mol-Kelvin
 Total                  173.425             49.268            117.453
 Electronic               0.000              0.000              1.377
 Translational            0.889              2.981             41.103
 Rotational               0.889              2.981             31.316
 Vibrational            171.648             43.307             43.657
 Vibration     1          0.593              1.986              6.737
 Vibration     2          0.594              1.981              5.177
 Vibration     3          0.599              1.966              4.013
 Vibration     4          0.603              1.951              3.493
 Vibration     5          0.607              1.939              3.214
 Vibration     6          0.617              1.907              2.718
 Vibration     7          0.647              1.812              1.967
 Vibration     8          0.648              1.809              1.948
 Vibration     9          0.659              1.775              1.784
 Vibration    10          0.664              1.757              1.708
 Vibration    11          0.690              1.680              1.436
 Vibration    12          0.742              1.534              1.081
 Vibration    13          0.754              1.502              1.019
 Vibration    14          0.781              1.430              0.897
 Vibration    15          0.805              1.370              0.809
 Vibration    16          0.810              1.357              0.790
 Vibration    17          0.833              1.303              0.721
 Vibration    18          0.872              1.212              0.617
 Vibration    19          0.957              1.033              0.451

 Optimization completed on the basis of negligible forces.
    -- Stationary point found.
 Normal termination of Gaussian 09 at Mon Feb 17 02:04:49 2014.

 -----------------------------------------------------------
 #P Geom=AllCheck Guess=TCheck SCRF=Check CCSD(T)/6-31+G(d')
 -----------------------------------------------------------

 Structure from the checkpoint file:  TS_1_1b.chk
 ------------------------------------
 TS_1_1b using cbs-qb3 to cal. energy
 ------------------------------------
 Charge =  0 Multiplicity = 2

 SCF Done:  E(UHF) =  -501.403211832     A.U. after   22 cycles
 E2 =    -0.1583077899D+01 EUMP2 =    -0.50298628973179D+03
 CCSD(T)
 CCSD(T)= -0.50316114831D+03
 5612\MP4SDQ=-503.1011901\CCSD=-503.1046133\CCSD(T)=-503.1611483\S2=0.7
 Normal termination of Gaussian 09 at Mon Feb 17 20:31:25 2014.

 -----------------------------------------------------
 #P Geom=AllCheck Guess=TCheck SCRF=Check MP4SDQ/CBSB4
 -----------------------------------------------------

 Structure from the checkpoint file:  TS_1_1b.chk
 ------------------------------------
 TS_1_1b using cbs-qb3 to cal. energy
 ------------------------------------
 Charge =  0 Multiplicity = 2

 SCF Done:  E(UHF) =  -501.433683943     A.U. after   19 cycles
 E2 =    -0.1710309825D+01 EUMP2 =    -0.50314399376790D+03
 Normal termination of Gaussian 09 at Mon Feb 17 21:13:11 2014.

 ----------------------------------------------------------------------
 #P Geom=AllCheck Guess=TCheck SCRF=Check MP2/CBSB3 CBSExtrap=(NMin=10,
 MinPop)
 ----------------------------------------------------------------------

 Structure from the checkpoint file:  TS_1_1b.chk
 ------------------------------------
 TS_1_1b using cbs-qb3 to cal. energy
 ------------------------------------
 Charge =  0 Multiplicity = 2

                         Standard orientation:
 ---------------------------------------------------------------------
 Center     Atomic      Atomic             Coordinates (Angstroms)
 Number     Number       Type             X           Y           Z
 ---------------------------------------------------------------------
      1          6           0       -2.979858   -1.451322    0.232956
      2          1           0       -2.737874   -2.278999   -0.430054
      3          1           0       -3.655294   -0.516137   -0.562310
      4          1           0       -3.753948   -1.681104    0.963255
      5          6           0       -1.832695   -0.585716    0.704876
      6          1           0       -1.629189   -0.808095    1.763926
      7          6           0       -0.550684   -0.828225   -0.115480
      8          1           0       -0.400289   -1.910489   -0.200144
      9          1           0       -0.712906   -0.458435   -1.133925
     10          6           0        0.722782   -0.204042    0.468774
     11          1           0        0.863330   -0.564184    1.496844
     12          1           0        0.609760    0.882369    0.535521
     13          6           0        1.972151   -0.538361   -0.356968
     14          1           0        1.854062   -0.135063   -1.371830
     15          1           0        2.033793   -1.628023   -0.469816
     16          6           0        3.305538   -0.034636    0.227491
     17          1           0        3.386151   -0.422961    1.252423
     18          6           0        4.487493   -0.593412   -0.577228
     19          1           0        4.456245   -0.239190   -1.613448
     20          1           0        5.443438   -0.279021   -0.148528
     21          1           0        4.473917   -1.687100   -0.599344
     22          6           0       -2.279533    0.905178    0.671252
     23          1           0       -3.091180    1.086132    1.382930
     24          1           0       -1.450312    1.583913    0.877618
     25          6           0        3.378402    1.497587    0.297073
     26          1           0        4.342571    1.824150    0.697306
     27          1           0        3.267346    1.937422   -0.700308
     28          1           0        2.599395    1.919729    0.936485
     29          8           0       -2.714216    1.233234   -0.640723
     30          8           0       -3.940857    0.563364   -0.858412
 ---------------------------------------------------------------------

 SCF Done:  E(UHF) =  -501.571704019     A.U. after   19 cycles
 E2 =    -0.2013920873D+01 EUMP2 =    -0.50358562489200D+03
 E2(CBS)=      -2.211127 CBS-Int=       0.066031 OIii=      17.336790

 The electronic state is 2-A.
 Alpha  occ. eigenvalues --  -20.62320 -20.61209 -11.28515 -11.26223 -11.24784
 Alpha  occ. eigenvalues --  -11.22707 -11.22617 -11.22315 -11.21852 -11.21095
 Alpha  occ. eigenvalues --  -11.21081  -1.48245  -1.20613  -1.11450  -1.08906
 Alpha  occ. eigenvalues --   -1.02452  -0.93538  -0.92922  -0.91679  -0.83829
 Alpha  occ. eigenvalues --   -0.79053  -0.76567  -0.73206  -0.67562  -0.65090
 Alpha  occ. eigenvalues --   -0.63666  -0.62878  -0.61234  -0.59625  -0.58946
 Alpha  occ. eigenvalues --   -0.57906  -0.56240  -0.53944  -0.53338  -0.52761
 Alpha  occ. eigenvalues --   -0.51856  -0.50882  -0.50267  -0.48459  -0.47457
 Alpha  occ. eigenvalues --   -0.45937  -0.45565  -0.44327  -0.44236  -0.38339
 Alpha virt. eigenvalues --    0.03520   0.04313   0.04631   0.05287   0.06023
 Alpha virt. eigenvalues --    0.06156   0.06864   0.07481   0.07912   0.08261
 Alpha virt. eigenvalues --    0.08670   0.09318   0.09688   0.10478   0.11697

  Beta  occ. eigenvalues --  -20.61258 -20.60041 -11.28406 -11.24972 -11.24250
  Beta  occ. eigenvalues --  -11.22707 -11.22599 -11.22318 -11.21852 -11.21095
  Beta  occ. eigenvalues --  -11.21081  -1.45719  -1.16530  -1.10676  -1.08090
  Beta  occ. eigenvalues --   -1.01419  -0.92930  -0.91896  -0.89347  -0.82822
  Beta  occ. eigenvalues --   -0.77831  -0.76457  -0.69205  -0.66936  -0.64625
  Beta  occ. eigenvalues --   -0.63005  -0.61713  -0.60257  -0.59372  -0.58358
  Beta  occ. eigenvalues --   -0.55853  -0.54632  -0.53499  -0.52150  -0.51333
  Beta  occ. eigenvalues --   -0.50403  -0.49936  -0.48861  -0.47439  -0.46698
  Beta  occ. eigenvalues --   -0.45919  -0.45468  -0.44064  -0.41961
  Beta virt. eigenvalues --    0.03546   0.04290   0.04486   0.05214   0.05703
  Beta virt. eigenvalues --    0.06046   0.06290   0.07030   0.07884   0.07953
  Beta virt. eigenvalues --    0.08273   0.08731   0.09412   0.10030   0.10756

 Mulliken atomic charges:
              1
     1  C   -0.629204
     2  H    0.130140
     3  H    0.329067
     4  H    0.111993
     5  C    1.202353
     6  H    0.061176
     7  C   -0.933939
     8  H    0.015314
     9  H    0.163088
    10  C    0.201906
    11  H    0.059518
    12  H   -0.002744
    13  C   -0.793008
    14  H    0.078788
    15  H    0.037253
    16  C    1.019978
    17  H    0.032568
    18  C   -0.398106
    19  H    0.055906
    20  H    0.101080
    21  H    0.055838
    22  C   -0.367383
    23  H    0.128187
    24  H    0.113568
    25  C   -0.613037
    26  H    0.087394
    27  H    0.069309
    28  H    0.068171
    29  O   -0.093380
    30  O   -0.291792
 Sum of Mulliken atomic charges =   0.00000

 Dipole moment (field-independent basis, Debye):
    X=              1.8410    Y=             -2.2941    Z=              2.5531  Tot=              3.8949
 Quadrupole moment (field-independent basis, Debye-Ang):
   XX=            -81.7191   YY=            -71.5467   ZZ=            -72.5191
   XY=              8.3576   XZ=             -7.6794   YZ=              2.3513

    1 imaginary frequencies ignored.
 Normal termination of Gaussian 09 at Mon Feb 17 23:08:07 2014.
