 Gaussian 09, Revision A.01,
 Gaussian 09:  EM64L-G09RevA.01  8-May-2009

 -----------------------------
 #p scan ub3lyp/6-31g(d) nosym
 -----------------------------

 -----------------------------
 using ub3lyp/6-31G(d) to scan
 -----------------------------
 Symbolic Z-matrix:
 Charge =  0 Multiplicity = 2

 SCF Done:  E(UB3LYP) =  -504.667180632     A.U. after   30 cycles

 Alpha  occ. eigenvalues --  -19.16356 -19.14505 -10.25431 -10.21072 -10.19793
 Alpha  occ. eigenvalues --  -10.19172 -10.18366 -10.18307 -10.17714 -10.17400
 Alpha  occ. eigenvalues --  -10.16651  -1.02175  -0.92815  -0.82512  -0.78034
 Alpha  occ. eigenvalues --   -0.74252  -0.69279  -0.68718  -0.68458  -0.58998
 Alpha  occ. eigenvalues --   -0.56514  -0.53064  -0.47569  -0.47030  -0.45951
 Alpha  occ. eigenvalues --   -0.45363  -0.44279  -0.43541  -0.41751  -0.40701
 Alpha  occ. eigenvalues --   -0.39958  -0.38798  -0.38325  -0.38200  -0.37018
 Alpha  occ. eigenvalues --   -0.36050  -0.35237  -0.34918  -0.33757  -0.33070
 Alpha  occ. eigenvalues --   -0.32763  -0.30710  -0.27876  -0.24050  -0.17656
 Alpha virt. eigenvalues --   -0.09257   0.07840   0.09831   0.10499   0.12016
 Alpha virt. eigenvalues --    0.12574   0.12928   0.14492   0.14857   0.14934
 Alpha virt. eigenvalues --    0.15442   0.16074   0.16586   0.17775   0.17921

  Beta  occ. eigenvalues --  -19.16398 -19.13279 -10.25159 -10.20202 -10.19724
  Beta  occ. eigenvalues --  -10.19228 -10.18593 -10.18354 -10.17712 -10.17395
  Beta  occ. eigenvalues --  -10.16637  -1.01859  -0.90125  -0.81981  -0.77574
  Beta  occ. eigenvalues --   -0.73904  -0.69227  -0.68707  -0.68463  -0.58234
  Beta  occ. eigenvalues --   -0.56197  -0.52598  -0.47265  -0.46760  -0.45324
  Beta  occ. eigenvalues --   -0.45099  -0.43913  -0.43271  -0.41585  -0.40325
  Beta  occ. eigenvalues --   -0.39431  -0.38759  -0.38268  -0.37557  -0.36774
  Beta  occ. eigenvalues --   -0.35993  -0.35194  -0.34815  -0.33545  -0.32963
  Beta  occ. eigenvalues --   -0.32587  -0.27938  -0.27212  -0.23102
  Beta virt. eigenvalues --   -0.07241  -0.04910   0.07928   0.10027   0.10671
  Beta virt. eigenvalues --    0.12162   0.12812   0.13143   0.14704   0.14894
  Beta virt. eigenvalues --    0.15003   0.15576   0.16110   0.16694   0.17992

 Mulliken atomic charges:
              1
     1  C   -0.450926
     2  H    0.158373
     3  H    0.160728
     4  H    0.141874
     5  C    0.347026
     6  C   -0.462606
     7  H    0.176848
     8  H    0.148309
     9  H    0.135076
    10  C   -0.357669
    11  C   -0.049674
    12  C   -0.291404
    13  C   -0.077077
    14  C   -0.443711
    15  C   -0.441635
    16  H    0.157461
    17  H    0.207726
    18  H    0.136926
    19  H    0.145556
    20  H    0.148929
    21  H    0.125061
    22  H    0.143058
    23  H    0.144101
    24  H    0.150315
    25  H    0.141020
    26  H    0.144139
    27  H    0.145360
    28  O   -0.362111
    29  O   -0.510701
    30  H    0.389632
 Sum of Mulliken atomic charges =   0.00000

 Dipole moment (field-independent basis, Debye):
    X=             -0.7456    Y=             -2.3208    Z=             -0.6816  Tot=              2.5311
 Quadrupole moment (field-independent basis, Debye-Ang):
   XX=            -67.7451   YY=            -73.4764   ZZ=            -65.8657
   XY=              2.3359   XZ=              3.2139   YZ=              4.7202

 SCF Done:  E(UB3LYP) =  -504.666759785     A.U. after   19 cycles
 SCF Done:  E(UB3LYP) =  -504.666007888     A.U. after   19 cycles
 SCF Done:  E(UB3LYP) =  -504.665159936     A.U. after   19 cycles
 SCF Done:  E(UB3LYP) =  -504.664445609     A.U. after   17 cycles
 SCF Done:  E(UB3LYP) =  -504.663953575     A.U. after   18 cycles
 SCF Done:  E(UB3LYP) =  -504.663841119     A.U. after   17 cycles
 SCF Done:  E(UB3LYP) =  -504.663707594     A.U. after   19 cycles
 SCF Done:  E(UB3LYP) =  -504.662748295     A.U. after   20 cycles
 SCF Done:  E(UB3LYP) =  -504.660121242     A.U. after   20 cycles
 SCF Done:  E(UB3LYP) =  -504.660634009     A.U. after   19 cycles
 SCF Done:  E(UB3LYP) =  -504.662494964     A.U. after   19 cycles
 SCF Done:  E(UB3LYP) =  -504.664444916     A.U. after   19 cycles
 SCF Done:  E(UB3LYP) =  -504.666041440     A.U. after   23 cycles
 SCF Done:  E(UB3LYP) =  -504.666967526     A.U. after   19 cycles
 SCF Done:  E(UB3LYP) =  -504.667180632     A.U. after   19 cycles
 SCF Done:  E(UB3LYP) =  -504.666759785     A.U. after   19 cycles
 SCF Done:  E(UB3LYP) =  -504.666007888     A.U. after   19 cycles
 SCF Done:  E(UB3LYP) =  -504.665159936     A.U. after   19 cycles

                         Z-Matrix orientation:
 ---------------------------------------------------------------------
 Center     Atomic      Atomic             Coordinates (Angstroms)
 Number     Number       Type             X           Y           Z
 ---------------------------------------------------------------------
      1          6           0        0.000000    0.000000    0.000000
      2          1           0        0.000000    0.000000    1.093261
      3          1           0        1.034819    0.000000   -0.344674
      4          1           0       -0.501759   -0.905841   -0.353749
      5          6           0       -0.743931    1.237466   -0.515833
      6          6           0       -2.210580    1.308202   -0.095065
      7          1           0       -2.668269    2.199776   -0.523464
      8          1           0       -2.258038    1.394282    0.994839
      9          1           0       -2.771738    0.422057   -0.398026
     10          6           0       -0.658197    1.096650   -2.297848
     11          6           0       -1.859875    0.693246   -2.927757
     12          6           0       -2.938532    1.610945   -3.395495
     13          6           0       -3.288363    1.443752   -4.900029
     14          6           0       -4.529326    2.272591   -5.253862
     15          6           0       -2.102092    1.809345   -5.800565
     16          1           0        0.159475    0.381754   -2.369960
     17          1           0       -0.326065    2.109899   -2.510554
     18          1           0       -2.050650   -0.371317   -3.055963
     19          1           0       -3.858993    1.416221   -2.824477
     20          1           0       -2.661198    2.652980   -3.202726
     21          1           0       -3.529162    0.385091   -5.064136
     22          1           0       -2.352906    1.663961   -6.855085
     23          1           0       -1.821484    2.859617   -5.666486
     24          1           0       -1.222867    1.200123   -5.576317
     25          1           0       -5.391081    1.985495   -4.644290
     26          1           0       -4.345181    3.339939   -5.091854
     27          1           0       -4.802426    2.139559   -6.304443
     28          8           0       -0.039337    2.315393   -0.200545
     29          8           0       -0.671783    3.714387   -1.169230
     30          1           0       -0.181157    4.311186   -0.588979
 ---------------------------------------------------------------------

 SCF Done:  E(UB3LYP) =  -504.664445609     A.U. after   17 cycles
 Normal termination of Gaussian 09 at Fri Jun 26 14:16:07 2015.
