 Gaussian 09, Revision A.01,
 Gaussian 09:  EM64L-G09RevA.01  8-May-2009

 -----------------------------
 #p SCAN ub3lyp/6-31g(d) nosym
 -----------------------------

 -----------------------------
 using ub3lyp/6-31G(d) to scan
 -----------------------------
 Symbolic Z-matrix:
 Charge =  0 Multiplicity = 2

 SCF Done:  E(UB3LYP) =  -504.667180632     A.U. after   30 cycles

 Alpha  occ. eigenvalues --  -19.16356 -19.14505 -10.25431 -10.21072 -10.19793
 Alpha  occ. eigenvalues --  -10.19172 -10.18366 -10.18307 -10.17714 -10.17400
 Alpha  occ. eigenvalues --  -10.16651  -1.02175  -0.92815  -0.82512  -0.78034
 Alpha  occ. eigenvalues --   -0.74252  -0.69279  -0.68718  -0.68458  -0.58998
 Alpha  occ. eigenvalues --   -0.56514  -0.53064  -0.47569  -0.47030  -0.45951
 Alpha  occ. eigenvalues --   -0.45363  -0.44279  -0.43541  -0.41751  -0.40701
 Alpha  occ. eigenvalues --   -0.39958  -0.38798  -0.38325  -0.38200  -0.37018
 Alpha  occ. eigenvalues --   -0.36050  -0.35237  -0.34918  -0.33757  -0.33070
 Alpha  occ. eigenvalues --   -0.32763  -0.30710  -0.27876  -0.24050  -0.17656
 Alpha virt. eigenvalues --   -0.09257   0.07840   0.09831   0.10499   0.12016
 Alpha virt. eigenvalues --    0.12574   0.12928   0.14492   0.14857   0.14934
 Alpha virt. eigenvalues --    0.15442   0.16074   0.16586   0.17775   0.17921

  Beta  occ. eigenvalues --  -19.16398 -19.13279 -10.25159 -10.20202 -10.19724
  Beta  occ. eigenvalues --  -10.19228 -10.18593 -10.18354 -10.17712 -10.17395
  Beta  occ. eigenvalues --  -10.16637  -1.01859  -0.90125  -0.81981  -0.77574
  Beta  occ. eigenvalues --   -0.73904  -0.69227  -0.68707  -0.68463  -0.58234
  Beta  occ. eigenvalues --   -0.56197  -0.52598  -0.47265  -0.46760  -0.45324
  Beta  occ. eigenvalues --   -0.45099  -0.43913  -0.43271  -0.41585  -0.40325
  Beta  occ. eigenvalues --   -0.39431  -0.38759  -0.38268  -0.37557  -0.36774
  Beta  occ. eigenvalues --   -0.35993  -0.35194  -0.34815  -0.33545  -0.32963
  Beta  occ. eigenvalues --   -0.32587  -0.27938  -0.27212  -0.23102
  Beta virt. eigenvalues --   -0.07241  -0.04910   0.07928   0.10027   0.10671
  Beta virt. eigenvalues --    0.12162   0.12812   0.13143   0.14704   0.14894
  Beta virt. eigenvalues --    0.15003   0.15576   0.16110   0.16694   0.17992

 Mulliken atomic charges:
              1
     1  C   -0.450926
     2  H    0.158373
     3  H    0.160728
     4  H    0.141874
     5  C   -0.357669
     6  H    0.207726
     7  H    0.157461
     8  C   -0.049674
     9  H    0.136926
    10  C   -0.291404
    11  H    0.148929
    12  H    0.145556
    13  C   -0.077077
    14  H    0.125061
    15  C   -0.441635
    16  H    0.150315
    17  H    0.143058
    18  H    0.144101
    19  C   -0.462606
    20  H    0.148309
    21  H    0.176848
    22  H    0.135076
    23  C   -0.443711
    24  H    0.145360
    25  H    0.141020
    26  H    0.144139
    27  C    0.347026
    28  O   -0.362111
    29  O   -0.510701
    30  H    0.389632
 Sum of Mulliken atomic charges =   0.00000

 Dipole moment (field-independent basis, Debye):
    X=             -0.7456    Y=             -2.3208    Z=             -0.6816  Tot=              2.5311
 Quadrupole moment (field-independent basis, Debye-Ang):
   XX=            -67.7451   YY=            -73.4764   ZZ=            -65.8657
   XY=              2.3359   XZ=              3.2139   YZ=              4.7202

 SCF Done:  E(UB3LYP) =  -504.667149876     A.U. after   19 cycles
 SCF Done:  E(UB3LYP) =  -504.667070660     A.U. after   18 cycles
 SCF Done:  E(UB3LYP) =  -504.666932177     A.U. after   19 cycles
 SCF Done:  E(UB3LYP) =  -504.666724051     A.U. after   19 cycles
 SCF Done:  E(UB3LYP) =  -504.666416639     A.U. after   19 cycles
 SCF Done:  E(UB3LYP) =  -504.665963667     A.U. after   19 cycles
 SCF Done:  E(UB3LYP) =  -504.665319257     A.U. after   19 cycles
 SCF Done:  E(UB3LYP) =  -504.664413702     A.U. after   19 cycles
 SCF Done:  E(UB3LYP) =  -504.663148130     A.U. after   19 cycles
 SCF Done:  E(UB3LYP) =  -504.666365929     A.U. after   20 cycles
 SCF Done:  E(UB3LYP) =  -504.666746586     A.U. after   20 cycles
 SCF Done:  E(UB3LYP) =  -504.666983082     A.U. after   20 cycles
 SCF Done:  E(UB3LYP) =  -504.667111299     A.U. after   20 cycles
 SCF Done:  E(UB3LYP) =  -504.667168373     A.U. after   19 cycles
 SCF Done:  E(UB3LYP) =  -504.667180632     A.U. after   19 cycles
 SCF Done:  E(UB3LYP) =  -504.667149876     A.U. after   19 cycles
 SCF Done:  E(UB3LYP) =  -504.667070660     A.U. after   18 cycles
 SCF Done:  E(UB3LYP) =  -504.666932177     A.U. after   19 cycles

                         Z-Matrix orientation:
 ---------------------------------------------------------------------
 Center     Atomic      Atomic             Coordinates (Angstroms)
 Number     Number       Type             X           Y           Z
 ---------------------------------------------------------------------
      1          6           0        0.000000    0.000000    0.000000
      2          1           0        0.000000    0.000000    1.093261
      3          1           0        1.034819    0.000000   -0.344674
      4          1           0       -0.501759   -0.905841   -0.353749
      5          6           0       -0.658197    1.096650   -2.297848
      6          1           0       -1.061403    2.076152   -2.543265
      7          1           0        0.423976    1.067063   -2.411388
      8          6           0       -1.345654   -0.011983   -2.847290
      9          1           0       -0.814635   -0.957264   -2.950196
     10          6           0       -2.779156   -0.020081   -3.258942
     11          1           0       -3.226836    0.966408   -3.096665
     12          1           0       -3.337450   -0.729812   -2.629804
     13          6           0       -2.999474   -0.445910   -4.736807
     14          1           0       -2.512001   -1.420400   -4.872528
     15          6           0       -2.359920    0.548674   -5.713350
     16          1           0       -1.286610    0.654092   -5.536236
     17          1           0       -2.500573    0.224977   -6.748479
     18          1           0       -2.812684    1.540693   -5.609951
     19          6           0       -2.210580    1.308202   -0.095065
     20          1           0       -2.258038    1.394282    0.994839
     21          1           0       -2.668269    2.199776   -0.523464
     22          1           0       -2.771738    0.422057   -0.398026
     23          6           0       -4.495954   -0.620354   -5.023653
     24          1           0       -4.661453   -0.948622   -6.053631
     25          1           0       -4.948521   -1.361563   -4.358511
     26          1           0       -5.032508    0.324487   -4.886639
     27          6           0       -0.743931    1.237466   -0.515833
     28          8           0       -0.039337    2.315393   -0.200545
     29          8           0       -0.671783    3.714387   -1.169230
     30          1           0        0.197872    4.129500   -1.098839
 ---------------------------------------------------------------------

 SCF Done:  E(UB3LYP) =  -504.666724051     A.U. after   19 cycles
 Normal termination of Gaussian 09 at Sat Jun  6 00:30:37 2015.
