 Gaussian 09, Revision D.01,
 Gaussian 09:  ES64L-G09RevD.01 24-Apr-2013

 ----------------------------------------------------------------------
 #p B3LYP/6-31G(d) opt=tight int=ultrafine freq EmpiricalDispersion=GD3
 BJ
 ----------------------------------------------------------------------

 -------------------
 Title Card Required
 -------------------
 Symbolic Z-matrix:
 Charge =  0 Multiplicity = 1

 SCF Done:  E(RB3LYP) =  -1.17562312810     A.U. after    6 cycles
 SCF Done:  E(RB3LYP) =  -1.17562313002     A.U. after    3 cycles
 Optimization completed.
    -- Stationary point found.
 Normal termination of Gaussian 09 at Wed Apr 13 14:31:28 2016.

 --------------------------------------------------------------------
 #P Geom=AllCheck Guess=TCheck SCRF=Check GenChk RB3LYP/6-31G(d) Freq
 --------------------------------------------------------------------

 Structure from the checkpoint file:  "/WORK/tsinghua_xqyou_1/scratch/Gau-14954.chk"
 -------------------
 Title Card Required
 -------------------
 Charge =  0 Multiplicity = 1

                         Standard orientation:
 ---------------------------------------------------------------------
 Center     Atomic      Atomic             Coordinates (Angstroms)
 Number     Number       Type             X           Y           Z
 ---------------------------------------------------------------------
      1          1           0        0.000000    0.000000    0.371420
      2          1           0        0.000000    0.000000   -0.371420
 ---------------------------------------------------------------------

 SCF Done:  E(RB3LYP) =  -1.17562313002     A.U. after    1 cycles

 The electronic state is 1-SGG.
 Alpha  occ. eigenvalues --   -0.43395
 Alpha virt. eigenvalues --    0.10007   0.58140   1.10714

 Mulliken charges:
               1
     1  H    0.000000
     2  H    0.000000
 Sum of Mulliken charges =   0.00000

 Dipole moment (field-independent basis, Debye):
    X=              0.0000    Y=              0.0000    Z=              0.0000  Tot=              0.0000
 Quadrupole moment (field-independent basis, Debye-Ang):
   XX=             -2.0101   YY=             -2.0101   ZZ=             -1.5856
   XY=              0.0000   XZ=              0.0000   YZ=              0.0000

  Exact polarizability:   0.000   0.000   0.000   0.000   0.000   6.378
 Approx polarizability:   0.000   0.000   0.000   0.000   0.000   7.898

                      1
                     SGG
 Frequencies --   4448.6818
 Red. masses --      1.0078
 Frc consts  --     11.7516
 IR Inten    --      0.0000

 - Thermochemistry -
 -------------------
 Temperature   298.150 Kelvin.  Pressure   1.00000 Atm.
 Atom     1 has atomic number  1 and mass   1.00783

 Molecular mass:     2.01565 amu.
 Principal axes and moments of inertia in atomic units:
                           1         2         3
     Eigenvalues --     0.00000   0.99299   0.99299
           X            0.00000   1.00000   0.00000
           Y            0.00000   0.00000   1.00000
           Z            1.00000   0.00000   0.00000
 This molecule is a prolate symmetric top.
 Rotational symmetry number  2.
 Rotational temperature (Kelvin)     87.22555
 Rotational constant (GHZ):        1817.487671
 Zero-point vibrational energy      26609.0 (Joules/Mol)
                                    6.35971 (Kcal/Mol)
 Vibrational temperatures:   6400.65
          (Kelvin)

 Zero-point correction=                           0.010135 (Hartree/Particle)
 Thermal correction to Energy=                    0.012495
 Thermal correction to Enthalpy=                  0.013439
 Thermal correction to Gibbs Free Energy=        -0.001353
 Sum of electronic and zero-point Energies=             -1.165488
 Sum of electronic and thermal Energies=                -1.163128
 Sum of electronic and thermal Enthalpies=              -1.162184
 Sum of electronic and thermal Free Energies=           -1.176976

                     E (Thermal)             CV                S
                      KCal/Mol        Cal/Mol-Kelvin    Cal/Mol-Kelvin
 Total                    7.841              4.968             31.133
 Electronic               0.000              0.000              0.000
 Translational            0.889              2.981             28.080
 Rotational               0.592              1.987              3.052
 Vibrational              6.360              0.000              0.000

 Optimization completed.
    -- Stationary point found.
 Normal termination of Gaussian 09 at Wed Apr 13 14:31:46 2016.
