 Gaussian 09, Revision D.01,
 Gaussian 09:  ES64L-G09RevD.01 24-Apr-2013

 -----------------------------------------
 #p M062X/def2TZVP EmpiricalDispersion=GD3
 -----------------------------------------

 -------------------
 Title Card Required
 -------------------
 Symbolic Z-matrix:
 Charge =  0 Multiplicity = 3

                         Standard orientation:
 ---------------------------------------------------------------------
 Center     Atomic      Atomic             Coordinates (Angstroms)
 Number     Number       Type             X           Y           Z
 ---------------------------------------------------------------------
      1          8           0        0.000000    0.000000    0.607268
      2          8           0        0.000000    0.000000   -0.607268
 ---------------------------------------------------------------------

 SCF Done:  E(UM062X) =  -150.326083034     A.U. after   12 cycles

 The electronic state is 3-SGG.
 Alpha  occ. eigenvalues --  -19.79162 -19.79127  -1.44245  -0.96917  -0.66903
 Alpha  occ. eigenvalues --   -0.66903  -0.64288  -0.40493  -0.40493
 Alpha virt. eigenvalues --    0.22571   0.36983   0.41631   0.41631   0.47597
 Alpha virt. eigenvalues --    0.47791   0.53050   0.53050   0.77810   1.26782
 Alpha virt. eigenvalues --    1.26798   1.33882   1.33882   1.65961   1.65983

  Beta  occ. eigenvalues --  -19.76717 -19.76648  -1.36967  -0.86110  -0.59072
  Beta  occ. eigenvalues --   -0.53335  -0.53335
  Beta virt. eigenvalues --   -0.05810  -0.05810   0.24750   0.36918   0.43457
  Beta virt. eigenvalues --    0.43457   0.46653   0.50163   0.54852   0.54852
  Beta virt. eigenvalues --    0.78378   1.29175   1.29179   1.37401   1.37401

 Mulliken charges and spin densities:
               1          2
     1  O    0.000000   1.000000
     2  O    0.000000   1.000000
 Sum of Mulliken charges =   0.00000   2.00000

 Dipole moment (field-independent basis, Debye):
    X=              0.0000    Y=              0.0000    Z=              0.0000  Tot=              0.0000
 Quadrupole moment (field-independent basis, Debye-Ang):
   XX=            -10.0301   YY=            -10.0301   ZZ=            -10.4736
   XY=              0.0000   XZ=              0.0000   YZ=              0.0000

 1\1\GINC-LN1\SP\UM062X\def2TZVP\O2(3)\TSINGHUA_XQYOU_1\13-Apr-2016\0\\
 #p M062X/def2TZVP EmpiricalDispersion=GD3\\Title Card Required\\0,3\O,
 0,0.,0.,0.607268\O,0,0.,0.,-0.607268\\Version=ES64L-G09RevD.01\State=3
 -SGG\HF=-150.326083\S2=2.012698\S2-1=0.\S2A=2.000078\RMSD=2.028e-09\Di
 pole=0.,0.,0.\Quadrupole=0.1099254,0.1099254,-0.2198508,0.,0.,0.\PG=D*
 H [C*(O1.O1)]\\@

 Normal termination of Gaussian 09 at Wed Apr 13 15:15:00 2016.
