 Gaussian 09, Revision A.01,
 Gaussian 09:  EM64L-G09RevA.01  8-May-2009

 ----------------------------------------------
 #p B3LYP/6-31G(d) opt=tight int=ultrafine freq
 ----------------------------------------------

 ---------------------------------------------
 using B3LYP/6-31G(d) to do opt and freq calc.
 ---------------------------------------------
 Symbolic Z-matrix:
 Charge =  0 Multiplicity = 1

 SCF Done:  E(RB3LYP) =  -158.458810404     A.U. after   11 cycles
 SCF Done:  E(RB3LYP) =  -158.458809436     A.U. after    8 cycles
 SCF Done:  E(RB3LYP) =  -158.458809641     A.U. after   10 cycles
 SCF Done:  E(RB3LYP) =  -158.458809454     A.U. after   11 cycles
 SCF Done:  E(RB3LYP) =  -158.458809420     A.U. after   10 cycles
 SCF Done:  E(RB3LYP) =  -158.458810477     A.U. after    8 cycles
 SCF Done:  E(RB3LYP) =  -158.458810080     A.U. after   11 cycles
 SCF Done:  E(RB3LYP) =  -158.458810568     A.U. after   11 cycles
 Optimization completed.
    -- Stationary point found.
 Normal termination of Gaussian 09 at Sun Oct  4 11:30:29 2015.

 --------------------------------------------------------------------
 #P Geom=AllCheck Guess=TCheck SCRF=Check GenChk RB3LYP/6-31G(d) Freq
 --------------------------------------------------------------------

 using B3LYP/6-31G(d) to do opt and freq calc.
 ---------------------------------------------
 Redundant internal coordinates taken from checkpoint file:
 /state/partition1/Gau-3836.chk
 Charge =  0 Multiplicity = 1

                         Standard orientation:
 ---------------------------------------------------------------------
 Center     Atomic      Atomic             Coordinates (Angstroms)
 Number     Number       Type             X           Y           Z
 ---------------------------------------------------------------------
      1          6           0       -0.435141    1.395712    0.095871
      2          1           0       -0.452653    1.451638    1.192414
      3          1           0       -1.440607    1.643255   -0.265301
      4          1           0        0.251581    2.170788   -0.265179
      5          6           0        0.000000    0.000000   -0.372986
      6          1           0        0.000006    0.000005   -1.473541
      7          6           0       -0.991158   -1.074698    0.095871
      8          1           0       -2.005741   -0.867509   -0.265213
      9          1           0       -0.702812   -2.069239   -0.265282
     10          1           0       -1.030861   -1.117806    1.192417
     11          6           0        1.426301   -0.321015    0.095869
     12          1           0        1.754214   -1.303216   -0.265295
     13          1           0        2.143399    0.426043   -0.265184
     14          1           0        1.483461   -0.333955    1.192414
 ---------------------------------------------------------------------

 SCF Done:  E(RB3LYP) =  -158.458810568     A.U. after    1 cycles

 The electronic state is 1-A.
 Alpha  occ. eigenvalues --  -10.18495 -10.16854 -10.16854 -10.16853  -0.79481
 Alpha  occ. eigenvalues --   -0.67633  -0.67633  -0.55477  -0.45678  -0.42487
 Alpha  occ. eigenvalues --   -0.42487  -0.37863  -0.37863  -0.35893  -0.32239
 Alpha  occ. eigenvalues --   -0.32239  -0.31767
 Alpha virt. eigenvalues --    0.08602   0.13719   0.15437   0.15437   0.15855
 Alpha virt. eigenvalues --    0.15856   0.17605   0.19677   0.19677   0.22652
 Alpha virt. eigenvalues --    0.22760   0.25998   0.25998   0.51330   0.51331

 Mulliken atomic charges:
              1
     1  C   -0.435312
     2  H    0.137314
     3  H    0.138696
     4  H    0.138696
     5  C   -0.061054
     6  H    0.122889
     7  C   -0.435327
     8  H    0.138699
     9  H    0.138699
    10  H    0.137317
    11  C   -0.435339
    12  H    0.138702
    13  H    0.138701
    14  H    0.137318
 Sum of Mulliken atomic charges =   0.00000

 Dipole moment (field-independent basis, Debye):
    X=              0.0000    Y=              0.0000    Z=             -0.0853  Tot=              0.0853
 Quadrupole moment (field-independent basis, Debye-Ang):
   XX=            -28.4621   YY=            -28.4620   ZZ=            -27.9671
   XY=              0.0000   XZ=              0.0000   YZ=              0.0000

  Exact polarizability:  45.413   0.000  45.413   0.000   0.000  40.766
 Approx polarizability:  56.890   0.000  56.890   0.000   0.000  57.594

                     1                      2                      3
                     A                      A                      A
 Frequencies --   217.0891               260.1444               260.6271
 Red. masses --     1.0124                 1.0620                 1.0623
 Frc consts  --     0.0281                 0.0423                 0.0425
 IR Inten    --     0.0000                 0.0165                 0.0166

                     4                      5                      6
                     A                      A                      A
 Frequencies --   364.6816               364.7754               431.8793
 Red. masses --     2.0705                 2.0710                 1.9324
 Frc consts  --     0.1622                 0.1624                 0.2124
 IR Inten    --     0.0034                 0.0034                 0.2778

                     7                      8                      9
                     A                      A                      A
 Frequencies --   802.1511               934.0727               934.3940
 Red. masses --     2.8149                 1.2310                 1.2305
 Frc consts  --     1.0672                 0.6328                 0.6330
 IR Inten    --     0.5593                 1.2901                 1.2910

                    10                     11                     12
                     A                      A                      A
 Frequencies --   966.8258               981.5729               981.5908
 Red. masses --     1.2005                 1.7501                 1.7501
 Frc consts  --     0.6612                 0.9935                 0.9935
 IR Inten    --     0.0000                 0.0366                 0.0364

                    13                     14                     15
                     A                      A                      A
 Frequencies --  1205.0520              1205.1598              1225.0749
 Red. masses --     1.7173                 1.7180                 1.9116
 Frc consts  --     1.4693                 1.4701                 1.6903
 IR Inten    --     2.3770                 2.3763                 0.2947

                    16                     17                     18
                     A                      A                      A
 Frequencies --  1377.2704              1377.3110              1429.1459
 Red. masses --     1.3941                 1.3944                 1.2635
 Frc consts  --     1.5581                 1.5584                 1.5204
 IR Inten    --     4.7725                 4.7764                 4.3987

                    19                     20                     21
                     A                      A                      A
 Frequencies --  1429.2769              1457.1033              1513.1815
 Red. masses --     1.2632                 1.2305                 1.0494
 Frc consts  --     1.5204                 1.5393                 1.4157
 IR Inten    --     4.3970                 2.1888                 0.0000

                    22                     23                     24
                     A                      A                      A
 Frequencies --  1519.3052              1519.3592              1537.6256
 Red. masses --     1.0418                 1.0418                 1.0581
 Frc consts  --     1.4168                 1.4169                 1.4740
 IR Inten    --     0.4040                 0.4040                 2.7591

                    25                     26                     27
                     A                      A                      A
 Frequencies --  1537.6544              1544.3523              3012.0768
 Red. masses --     1.0581                 1.0444                 1.0837
 Frc consts  --     1.4739                 1.4676                 5.7928
 IR Inten    --     2.7629                13.6642                18.3178

                    28                     29                     30
                     A                      A                      A
 Frequencies --  3032.6532              3032.6868              3040.5058
 Red. masses --     1.0354                 1.0354                 1.0365
 Frc consts  --     5.6105                 5.6105                 5.6458
 IR Inten    --    34.4926                34.5322                13.4002

                    31                     32                     33
                     A                      A                      A
 Frequencies --  3095.4009              3095.4319              3103.7805
 Red. masses --     1.1015                 1.1015                 1.1034
 Frc consts  --     6.2185                 6.2186                 6.2626
 IR Inten    --     5.8366                 5.8380                 0.0052

                    34                     35                     36
                     A                      A                      A
 Frequencies --  3105.0821              3108.0922              3108.1345
 Red. masses --     1.1004                 1.1020                 1.1020
 Frc consts  --     6.2509                 6.2723                 6.2725
 IR Inten    --   108.2067                62.2662                62.2793

 - Thermochemistry -
 -------------------
 Temperature   298.150 Kelvin.  Pressure   1.00000 Atm.
 Atom     1 has atomic number  6 and mass  12.00000

 Molecular mass:    58.07825 amu.
 Principal axes and moments of inertia in atomic units:
                           1         2         3
     Eigenvalues --   233.24534 233.24755 402.86696
           X            0.99997  -0.00719   0.00000
           Y            0.00719   0.99997   0.00000
           Z            0.00000   0.00000   1.00000
 This molecule is an asymmetric top.
 Rotational symmetry number  1.
 Rotational temperatures (Kelvin)      0.37134     0.37134     0.21499
 Rotational constants (GHZ):           7.73752     7.73745     4.47974
 Zero-point vibrational energy     347578.1 (Joules/Mol)
                                   83.07316 (Kcal/Mol)
 Warning -- explicit consideration of   6 degrees of freedom as
           vibrations may cause significant error
 Vibrational temperatures:    312.34   374.29   374.98   524.69   524.83
          (Kelvin)            621.38  1154.12  1343.92  1344.38  1391.04
                             1412.26  1412.29  1733.80  1733.95  1762.61
                             1981.58  1981.64  2056.22  2056.41  2096.44
                             2177.13  2185.94  2186.02  2212.30  2212.34
                             2221.98  4333.70  4363.31  4363.35  4374.60
                             4453.59  4453.63  4465.64  4467.51  4471.85
                             4471.91

 Zero-point correction=                           0.132386 (Hartree/Particle)
 Thermal correction to Energy=                    0.138070
 Thermal correction to Enthalpy=                  0.139014
 Thermal correction to Gibbs Free Energy=         0.104768
 Sum of electronic and zero-point Energies=           -158.326425
 Sum of electronic and thermal Energies=              -158.320741
 Sum of electronic and thermal Enthalpies=            -158.319796
 Sum of electronic and thermal Free Energies=         -158.354043

                     E (Thermal)             CV                S
                      KCal/Mol        Cal/Mol-Kelvin    Cal/Mol-Kelvin
 Total                   86.640             20.033             72.078
 Electronic               0.000              0.000              0.000
 Translational            0.889              2.981             38.098
 Rotational               0.889              2.981             24.598
 Vibrational             84.863             14.071              9.382
 Vibration     1          0.646              1.815              1.983
 Vibration     2          0.668              1.746              1.661
 Vibration     3          0.669              1.745              1.658
 Vibration     4          0.738              1.545              1.102
 Vibration     5          0.738              1.545              1.102
 Vibration     6          0.793              1.401              0.853

 Normal termination of Gaussian 09 at Sun Oct  4 11:32:08 2015.
