 Gaussian 09, Revision A.01,
 Gaussian 09:  EM64L-G09RevA.01  8-May-2009

 ----------------------------------------------
 #p B3LYP/6-31G(d) opt=tight int=ultrafine freq
 ----------------------------------------------

 ---------------------------------------------
 using B3LYP/6-31G(d) to do opt and freq calc.
 ---------------------------------------------
 Symbolic Z-matrix:
 Charge =  0 Multiplicity = 1

 SCF Done:  E(RB3LYP) =  -158.458042501     A.U. after   11 cycles
 SCF Done:  E(RB3LYP) =  -158.458042773     A.U. after    6 cycles
 SCF Done:  E(RB3LYP) =  -158.458042782     A.U. after    5 cycles
 Optimization completed.
    -- Stationary point found.
 Normal termination of Gaussian 09 at Sun Oct  4 11:28:40 2015.

 --------------------------------------------------------------------
 #P Geom=AllCheck Guess=TCheck SCRF=Check GenChk RB3LYP/6-31G(d) Freq
 --------------------------------------------------------------------

 using B3LYP/6-31G(d) to do opt and freq calc.
 ---------------------------------------------
 Redundant internal coordinates taken from checkpoint file:
 /state/partition1/Gau-3835.chk
 Charge =  0 Multiplicity = 1

                         Standard orientation:
 ---------------------------------------------------------------------
 Center     Atomic      Atomic             Coordinates (Angstroms)
 Number     Number       Type             X           Y           Z
 ---------------------------------------------------------------------
      1          6           0        0.704505    1.835338    0.000000
      2          1           0        0.190658    2.231621    0.884626
      3          1           0        0.190658    2.231621   -0.884626
      4          1           0        1.724309    2.236988    0.000000
      5          6           0        0.704505    0.303360    0.000000
      6          1           0        1.255244   -0.063623   -0.878056
      7          1           0        1.255244   -0.063623    0.878056
      8          6           0       -0.704505   -0.303360    0.000000
      9          1           0       -1.255244    0.063623   -0.878056
     10          1           0       -1.255244    0.063623    0.878056
     11          6           0       -0.704505   -1.835338    0.000000
     12          1           0       -0.190658   -2.231621    0.884626
     13          1           0       -1.724309   -2.236988    0.000000
     14          1           0       -0.190658   -2.231621   -0.884626
 ---------------------------------------------------------------------

 SCF Done:  E(RB3LYP) =  -158.458042782     A.U. after    1 cycles

 The electronic state is 1-AG.
 Alpha  occ. eigenvalues --  -10.17601 -10.17580 -10.17003 -10.17003  -0.78710
 Alpha  occ. eigenvalues --   -0.71806  -0.62574  -0.57148  -0.46274  -0.42078
 Alpha  occ. eigenvalues --   -0.41327  -0.40628  -0.36435  -0.34692  -0.32862
 Alpha  occ. eigenvalues --   -0.31919  -0.31756
 Alpha virt. eigenvalues --    0.09490   0.12075   0.13577   0.14574   0.17080
 Alpha virt. eigenvalues --    0.18381   0.18476   0.18751   0.19848   0.19887
 Alpha virt. eigenvalues --    0.24692   0.25703   0.26281   0.49737   0.50481

 Mulliken atomic charges:
              1
     1  C   -0.441265
     2  H    0.140853
     3  H    0.140853
     4  H    0.141109
     5  C   -0.239907
     6  H    0.129179
     7  H    0.129179
     8  C   -0.239907
     9  H    0.129179
    10  H    0.129179
    11  C   -0.441265
    12  H    0.140853
    13  H    0.141109
    14  H    0.140853
 Sum of Mulliken atomic charges =   0.00000

 Dipole moment (field-independent basis, Debye):
    X=              0.0000    Y=              0.0000    Z=              0.0000  Tot=              0.0000
 Quadrupole moment (field-independent basis, Debye-Ang):
   XX=            -28.1408   YY=            -28.8747   ZZ=            -27.7482
   XY=             -0.0446   XZ=              0.0000   YZ=              0.0000

  Exact polarizability:  43.264   3.160  48.196   0.000   0.000  40.815
 Approx polarizability:  56.765   0.072  55.688   0.000   0.000  57.476

                     1                      2                      3
                    AU                     AU                     BU
 Frequencies --   120.8929               225.2840               258.7693
 Red. masses --     1.9189                 1.0600                 2.2522
 Frc consts  --     0.0165                 0.0317                 0.0889
 IR Inten    --     0.0056                 0.0015                 0.0580

                     4                      5                      6
                    BG                     AG                     AU
 Frequencies --   264.2643               424.4681               743.0804
 Red. masses --     1.1224                 2.7391                 1.0707
 Frc consts  --     0.0462                 0.2908                 0.3483
 IR Inten    --     0.0000                 0.0000                 3.6362

                     7                      8                      9
                    BG                     AG                     AU
 Frequencies --   818.8444               847.9658               972.0075
 Red. masses --     1.1252                 1.9839                 1.1183
 Frc consts  --     0.4445                 0.8405                 0.6225
 IR Inten    --     0.0000                 0.0000                 1.1584

                    10                     11                     12
                    BU                     BU                     AG
 Frequencies --   988.7735              1026.9310              1072.2592
 Red. masses --     1.3553                 2.6673                 2.3812
 Frc consts  --     0.7807                 1.6573                 1.6131
 IR Inten    --     5.5724                 0.4822                 0.0000

                    13                     14                     15
                    AG                     BG                     AU
 Frequencies --  1180.8601              1224.9353              1305.1549
 Red. masses --     2.0215                 1.7487                 1.2460
 Frc consts  --     1.6608                 1.5460                 1.2505
 IR Inten    --     0.0000                 0.0000                 0.1014

                    16                     17                     18
                    BU                     BG                     AG
 Frequencies --  1339.6327              1346.8665              1417.4958
 Red. masses --     1.3481                 1.0696                 1.5509
 Frc consts  --     1.4254                 1.1432                 1.8360
 IR Inten    --     6.2681                 0.0000                 0.0000

                    19                     20                     21
                    AG                     BU                     AG
 Frequencies --  1439.6249              1442.0824              1516.3688
 Red. masses --     1.2453                 1.2455                 1.0640
 Frc consts  --     1.5206                 1.5261                 1.4414
 IR Inten    --     0.0000                 2.6279                 0.0000

                    22                     23                     24
                    BU                     BG                     AU
 Frequencies --  1521.3749              1529.3993              1530.4177
 Red. masses --     1.0530                 1.0448                 1.0374
 Frc consts  --     1.4360                 1.4398                 1.4316
 IR Inten    --     1.5974                 0.0000                11.5377

                    25                     26                     27
                    AG                     BU                     AG
 Frequencies --  1536.0312              1542.7621              3019.1307
 Red. masses --     1.0639                 1.0851                 1.0586
 Frc consts  --     1.4789                 1.5217                 5.6853
 IR Inten    --     0.0000                 4.5673                 0.0000

                    28                     29                     30
                    BU                     BU                     BG
 Frequencies --  3026.7404              3040.3823              3040.9861
 Red. masses --     1.0597                 1.0362                 1.1012
 Frc consts  --     5.7198                 5.6435                 6.0001
 IR Inten    --    50.7016                78.3212                 0.0000

                    31                     32                     33
                    AG                     AU                     BG
 Frequencies --  3041.0619              3063.2470              3102.8356
 Red. masses --     1.0362                 1.1048                 1.1030
 Frc consts  --     5.6463                 6.1079                 6.2567
 IR Inten    --     0.0000                27.9933                 0.0000

                    34                     35                     36
                    AU                     AG                     BU
 Frequencies --  3106.7941              3109.6423              3110.4174
 Red. masses --     1.1026                 1.1020                 1.1016
 Frc consts  --     6.2706                 6.2784                 6.2795
 IR Inten    --   122.4715                 0.0000                85.6791

 - Thermochemistry -
 -------------------
 Temperature   298.150 Kelvin.  Pressure   1.00000 Atm.
 Atom     1 has atomic number  6 and mass  12.00000

 Molecular mass:    58.07825 amu.
 Principal axes and moments of inertia in atomic units:
                           1         2         3
     Eigenvalues --    77.10036 501.66861 534.03919
           X            0.42015   0.90745   0.00000
           Y            0.90745  -0.42015   0.00000
           Z            0.00000   0.00000   1.00000
 This molecule is an asymmetric top.
 Rotational symmetry number  2.
 Rotational temperatures (Kelvin)      1.12339     0.17265     0.16219
 Rotational constants (GHZ):          23.40769     3.59748     3.37942
 Zero-point vibrational energy     348698.2 (Joules/Mol)
                                   83.34087 (Kcal/Mol)
 Warning -- explicit consideration of   5 degrees of freedom as
           vibrations may cause significant error
 Vibrational temperatures:    173.94   324.13   372.31   380.22   610.71
          (Kelvin)           1069.13  1178.13  1220.03  1398.50  1422.62
                             1477.52  1542.74  1698.99  1762.41  1877.82
                             1927.43  1937.84  2039.46  2071.30  2074.83
                             2181.71  2188.92  2200.46  2201.93  2210.00
                             2219.69  4343.85  4354.80  4374.43  4375.30
                             4375.40  4407.32  4464.28  4469.98  4474.08
                             4475.19

 Zero-point correction=                           0.132812 (Hartree/Particle)
 Thermal correction to Energy=                    0.138574
 Thermal correction to Enthalpy=                  0.139518
 Thermal correction to Gibbs Free Energy=         0.105458
 Sum of electronic and zero-point Energies=           -158.325231
 Sum of electronic and thermal Energies=              -158.319469
 Sum of electronic and thermal Enthalpies=            -158.318525
 Sum of electronic and thermal Free Energies=         -158.352585

                     E (Thermal)             CV                S
                      KCal/Mol        Cal/Mol-Kelvin    Cal/Mol-Kelvin
 Total                   86.956             19.495             71.685
 Electronic               0.000              0.000              0.000
 Translational            0.889              2.981             38.098
 Rotational               0.889              2.981             23.161
 Vibrational             85.179             13.533             10.426
 Vibration     1          0.609              1.932              3.086
 Vibration     2          0.650              1.803              1.916
 Vibration     3          0.668              1.748              1.670
 Vibration     4          0.671              1.738              1.633
 Vibration     5          0.786              1.417              0.877

 Optimization completed.
    -- Stationary point found.
 Normal termination of Gaussian 09 at Sun Oct  4 11:29:13 2015.
