 Gaussian 09, Revision A.01,
 Gaussian 09:  EM64L-G09RevA.01  8-May-2009

 --------------------------
 #p b3lyp/6-31g(d) opt freq
 --------------------------

 -----------------------------
 using ub3lyp/6-31G(d) to scan
 -----------------------------
 Symbolic Z-matrix:
 Charge =  0 Multiplicity = 1

 SCF Done:  E(RB3LYP) =  -196.539564390     A.U. after   13 cycles
 SCF Done:  E(RB3LYP) =  -196.539578231     A.U. after    9 cycles
 SCF Done:  E(RB3LYP) =  -196.539587529     A.U. after    9 cycles
 SCF Done:  E(RB3LYP) =  -196.539589179     A.U. after    8 cycles
 SCF Done:  E(RB3LYP) =  -196.539590158     A.U. after    8 cycles
 SCF Done:  E(RB3LYP) =  -196.539590287     A.U. after    6 cycles
 Optimization completed.
    -- Stationary point found.
 Normal termination of Gaussian 09 at Sat Aug 22 15:16:52 2015.

 --------------------------------------------------------------------
 #P Geom=AllCheck Guess=TCheck SCRF=Check GenChk RB3LYP/6-31G(d) Freq
 --------------------------------------------------------------------

 using ub3lyp/6-31G(d) to scan
 -----------------------------
 Redundant internal coordinates taken from checkpoint file:
 C5H10_5_2_opt_631gd.chk
 Charge =  0 Multiplicity = 1

                         Standard orientation:
 ---------------------------------------------------------------------
 Center     Atomic      Atomic             Coordinates (Angstroms)
 Number     Number       Type             X           Y           Z
 ---------------------------------------------------------------------
      1          6           0        1.424245   -1.110005   -0.231654
      2          6           0        0.587230   -0.120439    0.097218
      3          6           0       -0.824388   -0.401598    0.570714
      4          1           0       -0.979872    0.079322    1.548510
      5          6           0       -1.918499    0.086257   -0.396078
      6          1           0       -1.883890    1.172172   -0.537356
      7          1           0       -1.807372   -0.383697   -1.379769
      8          1           0       -2.913430   -0.164166   -0.010914
      9          1           0        1.127120   -2.154436   -0.170557
     10          1           0        2.437995   -0.914134   -0.573270
     11          1           0       -0.942965   -1.479812    0.731533
     12          6           0        1.004559    1.328795    0.021788
     13          1           0        0.380848    1.894591   -0.682490
     14          1           0        0.896176    1.820364    0.998804
     15          1           0        2.046508    1.431730   -0.296414
 ---------------------------------------------------------------------

 SCF Done:  E(RB3LYP) =  -196.539590287     A.U. after    1 cycles

 The electronic state is 1-A.
 Alpha  occ. eigenvalues --  -10.18887 -10.18292 -10.17752 -10.17508 -10.16611
 Alpha  occ. eigenvalues --   -0.80674  -0.73133  -0.67940  -0.62099  -0.51780
 Alpha  occ. eigenvalues --   -0.45458  -0.45232  -0.42077  -0.40380  -0.38612
 Alpha  occ. eigenvalues --   -0.36366  -0.36041  -0.33490  -0.32238  -0.23927
 Alpha virt. eigenvalues --    0.02976   0.09214   0.13017   0.13875   0.14756
 Alpha virt. eigenvalues --    0.15794   0.17245   0.17851   0.18393   0.21128
 Alpha virt. eigenvalues --    0.22148   0.23748   0.24844   0.32201   0.38477

 Mulliken atomic charges:
              1
     1  C   -0.400213
     2  C    0.238791
     3  C   -0.317430
     4  H    0.136993
     5  C   -0.443073
     6  H    0.145590
     7  H    0.150717
     8  H    0.144516
     9  H    0.129400
    10  H    0.128893
    11  H    0.139398
    12  C   -0.512593
    13  H    0.155941
    14  H    0.150693
    15  H    0.152377
 Sum of Mulliken atomic charges =   0.00000

 Dipole moment (field-independent basis, Debye):
    X=             -0.3314    Y=              0.3542    Z=              0.1017  Tot=              0.4956
 Quadrupole moment (field-independent basis, Debye-Ang):
   XX=            -32.7932   YY=            -32.2766   ZZ=            -34.0755
   XY=              0.5316   XZ=             -0.7500   YZ=              0.1364

  Exact polarizability:  60.661  -5.637  58.256  -4.868   2.490  40.138
 Approx polarizability:  78.201 -12.715  82.942  -8.774   5.785  56.333

                     1                      2                      3
                     A                      A                      A
 Frequencies --    70.8230               187.3435               226.9895
 Red. masses --     1.8986                 1.0646                 1.3118
 Frc consts  --     0.0056                 0.0220                 0.0398
 IR Inten    --     0.0536                 0.2475                 0.3202

                     4                      5                      6
                     A                      A                      A
 Frequencies --   263.1259               398.2983               433.6470
 Red. masses --     1.9751                 2.0140                 2.1066
 Frc consts  --     0.0806                 0.1882                 0.2334
 IR Inten    --     0.1418                 0.5383                 1.7604

                     7                      8                      9
                     A                      A                      A
 Frequencies --   537.1193               728.5846               778.9781
 Red. masses --     2.3597                 1.1257                 2.1776
 Frc consts  --     0.4011                 0.3521                 0.7785
 IR Inten    --     4.8984                 0.0741                 1.1359

                    10                     11                     12
                     A                      A                      A
 Frequencies --   807.6702               924.2009               948.9903
 Red. masses --     1.2380                 1.3437                 1.9237
 Frc consts  --     0.4758                 0.6762                 1.0207
 IR Inten    --     1.6138                40.7521                 1.2185

                    13                     14                     15
                     A                      A                      A
 Frequencies --  1015.0223              1027.9834              1065.8098
 Red. masses --     1.2496                 2.1233                 1.4219
 Frc consts  --     0.7585                 1.3220                 0.9516
 IR Inten    --     1.0559                 0.3712                 1.4950

                    16                     17                     18
                     A                      A                      A
 Frequencies --  1108.8143              1131.9959              1287.2049
 Red. masses --     1.7152                 1.5768                 1.6049
 Frc consts  --     1.2425                 1.1904                 1.5667
 IR Inten    --     5.3667                 0.4567                 2.2455

                    19                     20                     21
                     A                      A                      A
 Frequencies --  1325.5172              1372.2313              1434.8468
 Red. masses --     1.5410                 1.5297                 1.2426
 Frc consts  --     1.5953                 1.6971                 1.5073
 IR Inten    --     1.9428                 3.1704                 1.8003

                    22                     23                     24
                     A                      A                      A
 Frequencies --  1440.7475              1473.4744              1505.6913
 Red. masses --     1.2319                 1.1960                 1.0560
 Frc consts  --     1.5066                 1.5299                 1.4105
 IR Inten    --     2.8596                 0.2160                 2.5245

                    25                     26                     27
                     A                      A                      A
 Frequencies --  1516.8361              1526.6815              1532.7031
 Red. masses --     1.0553                 1.0573                 1.0457
 Frc consts  --     1.4305                 1.4520                 1.4473
 IR Inten    --     7.7338                 9.6321                 4.6082

                    28                     29                     30
                     A                      A                      A
 Frequencies --  1539.9162              1735.9465              3018.4167
 Red. masses --     1.0724                 4.9072                 1.0663
 Frc consts  --     1.4984                 8.7127                 5.7237
 IR Inten    --     2.3695                12.9918                30.3250

                    31                     32                     33
                     A                      A                      A
 Frequencies --  3033.2025              3051.3890              3075.1388
 Red. masses --     1.0399                 1.0353                 1.0958
 Frc consts  --     5.6368                 5.6793                 6.1052
 IR Inten    --    28.5896                27.3360                16.4071

                    34                     35                     36
                     A                      A                      A
 Frequencies --  3080.3942              3117.8748              3122.3903
 Red. masses --     1.0978                 1.1023                 1.1021
 Frc consts  --     6.1373                 6.3133                 6.3308
 IR Inten    --    27.7442                43.1277                36.6020

                    37                     38                     39
                     A                      A                      A
 Frequencies --  3126.1565              3154.2499              3229.6073
 Red. masses --     1.1005                 1.0601                 1.1157
 Frc consts  --     6.3366                 6.2145                 6.8567
 IR Inten    --    26.3318                11.1617                23.1550

 - Thermochemistry -
 -------------------
 Temperature   298.150 Kelvin.  Pressure   1.00000 Atm.
 Atom     1 has atomic number  6 and mass  12.00000

 Molecular mass:    70.07825 amu.
 Principal axes and moments of inertia in atomic units:
                           1         2         3
     Eigenvalues --   250.31542 486.60232 639.48932
           X            0.99991   0.01315  -0.00203
           Y           -0.01315   0.99991  -0.00173
           Z            0.00201   0.00176   1.00000
 This molecule is an asymmetric top.
 Rotational symmetry number  1.
 Rotational temperatures (Kelvin)      0.34602     0.17800     0.13544
 Rotational constants (GHZ):           7.20987     3.70886     2.82216
 Zero-point vibrational energy     361009.1 (Joules/Mol)
                                   86.28325 (Kcal/Mol)
 Warning -- explicit consideration of   7 degrees of freedom as
           vibrations may cause significant error
 Vibrational temperatures:    101.90   269.55   326.59   378.58   573.06
          (Kelvin)            623.92   772.79  1048.27  1120.77  1162.06
                             1329.72  1365.38  1460.39  1479.04  1533.46
                             1595.33  1628.69  1852.00  1907.12  1974.33
                             2064.42  2072.91  2120.00  2166.35  2182.39
                             2196.55  2205.22  2215.59  2497.64  4342.82
                             4364.10  4390.26  4424.43  4431.99  4485.92
                             4492.42  4497.84  4538.26  4646.68

 Zero-point correction=                           0.137501 (Hartree/Particle)
 Thermal correction to Energy=                    0.144053
 Thermal correction to Enthalpy=                  0.144997
 Thermal correction to Gibbs Free Energy=         0.107792
 Sum of electronic and zero-point Energies=           -196.402089
 Sum of electronic and thermal Energies=              -196.395537
 Sum of electronic and thermal Enthalpies=            -196.394593
 Sum of electronic and thermal Free Energies=         -196.431798

                     E (Thermal)             CV                S
                      KCal/Mol        Cal/Mol-Kelvin    Cal/Mol-Kelvin
 Total                   90.395             22.968             78.306
 Electronic               0.000              0.000              0.000
 Translational            0.889              2.981             38.658
 Rotational               0.889              2.981             25.858
 Vibrational             88.617             17.006             13.790
 Vibration     1          0.598              1.968              4.130
 Vibration     2          0.632              1.857              2.254
 Vibration     3          0.651              1.800              1.903
 Vibration     4          0.670              1.740              1.641
 Vibration     5          0.765              1.474              0.969
 Vibration     6          0.794              1.397              0.847
 Vibration     7          0.892              1.168              0.572

 Optimization completed.
    -- Stationary point found.
 Normal termination of Gaussian 09 at Sat Aug 22 15:17:10 2015.
