 Gaussian 09, Revision A.01,
 Gaussian 09:  EM64L-G09RevA.01  8-May-2009

 ---------------------------
 #p ub3lyp/6-31G(d) opt freq
 ---------------------------

 -----------------------------
 using ub3lyp/6-31G(d) to scan
 -----------------------------
 Symbolic Z-matrix:
 Charge =  0 Multiplicity = 1

 SCF Done:  E(UB3LYP) =  -196.544037058     A.U. after   11 cycles
 SCF Done:  E(UB3LYP) =  -196.550063255     A.U. after   11 cycles
 SCF Done:  E(UB3LYP) =  -196.550385361     A.U. after   13 cycles
 SCF Done:  E(UB3LYP) =  -196.551169780     A.U. after   12 cycles
 SCF Done:  E(UB3LYP) =  -196.534926038     A.U. after   12 cycles
 SCF Done:  E(UB3LYP) =  -196.552044642     A.U. after   12 cycles
 SCF Done:  E(UB3LYP) =  -196.553486937     A.U. after   12 cycles
 SCF Done:  E(UB3LYP) =  -196.555935265     A.U. after   13 cycles
 SCF Done:  E(UB3LYP) =  -196.556803822     A.U. after   12 cycles
 SCF Done:  E(UB3LYP) =  -196.556991050     A.U. after   13 cycles
 SCF Done:  E(UB3LYP) =  -196.557014490     A.U. after   12 cycles
 SCF Done:  E(UB3LYP) =  -196.557059998     A.U. after    9 cycles
 SCF Done:  E(UB3LYP) =  -196.557077987     A.U. after   10 cycles
 SCF Done:  E(UB3LYP) =  -196.557085665     A.U. after    9 cycles
 Optimization completed.
    -- Stationary point found.
 Normal termination of Gaussian 09 at Sat Jun  6 00:36:23 2015.

 --------------------------------------------------------------------
 #P Geom=AllCheck Guess=TCheck SCRF=Check GenChk UB3LYP/6-31G(d) Freq
 --------------------------------------------------------------------

 using ub3lyp/6-31G(d) to scan
 -----------------------------
 Redundant internal coordinates taken from checkpoint file:
 C5H10_7_1_opt_631gd.chk
 Charge =  0 Multiplicity = 1

                         Standard orientation:
 ---------------------------------------------------------------------
 Center     Atomic      Atomic             Coordinates (Angstroms)
 Number     Number       Type             X           Y           Z
 ---------------------------------------------------------------------
      1          6           0        0.435983    1.216838    0.127454
      2          6           0       -0.995899    0.777456   -0.241695
      3          6           0       -1.064071   -0.675626    0.253581
      4          6           0        0.307204   -1.249740   -0.152279
      5          6           0        1.306501   -0.069666    0.013072
      6          1           0        0.801947    2.031103   -0.507168
      7          1           0        0.450812    1.589284    1.159253
      8          1           0       -1.130579    0.800603   -1.331910
      9          1           0       -1.766452    1.423149    0.194608
     10          1           0       -1.172637   -0.689848    1.347103
     11          1           0       -1.905642   -1.239351   -0.164835
     12          1           0        0.590957   -2.129534    0.435466
     13          1           0        0.271819   -1.566733   -1.202358
     14          1           0        1.927060   -0.197957    0.906797
     15          1           0        1.994407   -0.016286   -0.837753
 ---------------------------------------------------------------------

 SCF Done:  E(UB3LYP) =  -196.557085665     A.U. after    1 cycles

 The electronic state is 1-A.
 Alpha  occ. eigenvalues --  -10.17301 -10.17287 -10.17284 -10.17268 -10.17256
 Alpha  occ. eigenvalues --   -0.82119  -0.69789  -0.69760  -0.56171  -0.55459
 Alpha  occ. eigenvalues --   -0.47162  -0.46813  -0.40683  -0.40559  -0.33091
 Alpha  occ. eigenvalues --   -0.33042  -0.32617  -0.32269  -0.31770  -0.30921
 Alpha virt. eigenvalues --    0.08546   0.10072   0.14735   0.14782   0.17194
 Alpha virt. eigenvalues --    0.17838   0.17916   0.18674   0.19200   0.19299
 Alpha virt. eigenvalues --    0.21678   0.25369   0.25960   0.30154   0.31427

  Beta  occ. eigenvalues --  -10.17301 -10.17287 -10.17284 -10.17268 -10.17256
  Beta  occ. eigenvalues --   -0.82119  -0.69789  -0.69760  -0.56171  -0.55459
  Beta  occ. eigenvalues --   -0.47162  -0.46813  -0.40683  -0.40559  -0.33091
  Beta  occ. eigenvalues --   -0.33042  -0.32617  -0.32269  -0.31770  -0.30921
  Beta virt. eigenvalues --    0.08546   0.10072   0.14735   0.14782   0.17194
  Beta virt. eigenvalues --    0.17838   0.17916   0.18674   0.19200   0.19299
  Beta virt. eigenvalues --    0.21678   0.25369   0.25960   0.30154   0.31427

 Mulliken atomic charges:
              1
     1  C   -0.267111
     2  C   -0.263594
     3  C   -0.263561
     4  C   -0.266373
     5  C   -0.268608
     6  H    0.133193
     7  H    0.134187
     8  H    0.131099
     9  H    0.131649
    10  H    0.130806
    11  H    0.131680
    12  H    0.132720
    13  H    0.133597
    14  H    0.135259
    15  H    0.135058
 Sum of Mulliken atomic charges =   0.00000

 Dipole moment (field-independent basis, Debye):
    X=              0.0061    Y=              0.0006    Z=              0.0003  Tot=              0.0062
 Quadrupole moment (field-independent basis, Debye-Ang):
   XX=            -33.4728   YY=            -33.4669   ZZ=            -32.3867
   XY=              0.0002   XZ=             -0.0021   YZ=             -0.0105

  Exact polarizability:  51.848  -0.009  51.893   0.010   0.041  47.327
 Approx polarizability:  66.363  -0.010  66.414   0.020   0.087  68.879

                     1                      2                      3
                     A                      A                      A
 Frequencies --    21.7468               266.5650               553.0763
 Red. masses --     1.5600                 1.5973                 1.7135
 Frc consts  --     0.0004                 0.0669                 0.3088
 IR Inten    --     0.0020                 0.0022                 1.2199

                     4                      5                      6
                     A                      A                      A
 Frequencies --   619.1634               775.8402               828.1423
 Red. masses --     2.4840                 1.1707                 1.6396
 Frc consts  --     0.5611                 0.4152                 0.6625
 IR Inten    --     0.1707                 0.8841                 0.1919

                     7                      8                      9
                     A                      A                      A
 Frequencies --   875.5688               889.1212               907.7863
 Red. masses --     2.0463                 3.4979                 2.1519
 Frc consts  --     0.9243                 1.6292                 1.0448
 IR Inten    --     0.4835                 0.3606                 1.3718

                    10                     11                     12
                     A                      A                      A
 Frequencies --   914.9757               979.5196              1012.4852
 Red. masses --     2.3583                 1.2325                 1.2505
 Frc consts  --     1.1633                 0.6967                 0.7553
 IR Inten    --     1.3771                 0.9495                 0.4209

                    13                     14                     15
                     A                      A                      A
 Frequencies --  1045.9150              1059.9809              1192.0131
 Red. masses --     1.7171                 2.2931                 1.4348
 Frc consts  --     1.1067                 1.5180                 1.2012
 IR Inten    --     0.0017                 0.0162                 0.0113

                    16                     17                     18
                     A                      A                      A
 Frequencies --  1219.7907              1241.8445              1251.8244
 Red. masses --     1.4624                 1.3557                 1.4809
 Frc consts  --     1.2820                 1.2319                 1.3673
 IR Inten    --     0.3300                 0.5464                 0.2688

                    19                     20                     21
                     A                      A                      A
 Frequencies --  1295.8009              1321.8254              1340.7616
 Red. masses --     1.1235                 1.3432                 1.1938
 Frc consts  --     1.1115                 1.3828                 1.2644
 IR Inten    --     0.8790                 0.0011                 0.4817

                    22                     23                     24
                     A                      A                      A
 Frequencies --  1360.6954              1368.6584              1371.0462
 Red. masses --     1.2314                 1.4882                 1.4904
 Frc consts  --     1.3433                 1.6425                 1.6506
 IR Inten    --     0.0537                 0.8349                 0.7704

                    25                     26                     27
                     A                      A                      A
 Frequencies --  1515.9373              1521.9025              1527.1335
 Red. masses --     1.0793                 1.0880                 1.0890
 Frc consts  --     1.4614                 1.4848                 1.4963
 IR Inten    --     0.0882                 3.0151                 2.0689

                    28                     29                     30
                     A                      A                      A
 Frequencies --  1527.6284              1554.1171              3034.9773
 Red. masses --     1.0927                 1.1061                 1.0713
 Frc consts  --     1.5024                 1.5741                 5.8139
 IR Inten    --     1.2770                 0.0382                20.4985

                    31                     32                     33
                     A                      A                      A
 Frequencies --  3039.9047              3047.7185              3049.9283
 Red. masses --     1.0657                 1.0638                 1.0644
 Frc consts  --     5.8023                 5.8216                 5.8334
 IR Inten    --    38.1398                21.0732                30.6920

                    34                     35                     36
                     A                      A                      A
 Frequencies --  3065.2624              3083.4806              3092.8971
 Red. masses --     1.0648                 1.0976                 1.0909
 Frc consts  --     5.8944                 6.1484                 6.1483
 IR Inten    --    54.3387                37.7747                16.5290

                    37                     38                     39
                     A                      A                      A
 Frequencies --  3096.7444              3098.6289              3113.2820
 Red. masses --     1.1034                 1.1024                 1.1058
 Frc consts  --     6.2341                 6.2364                 6.3149
 IR Inten    --    31.9831                19.7162               113.1700

 - Thermochemistry -
 -------------------
 Temperature   298.150 Kelvin.  Pressure   1.00000 Atm.
 Atom     1 has atomic number  6 and mass  12.00000

 Molecular mass:    70.07825 amu.
 Principal axes and moments of inertia in atomic units:
                           1         2         3
     Eigenvalues --   279.36319 279.69585 484.58241
           X            0.99989  -0.01463   0.00034
           Y            0.01463   0.99989   0.00153
           Z           -0.00036  -0.00152   1.00000
 This molecule is an asymmetric top.
 Rotational symmetry number  1.
 Rotational temperatures (Kelvin)      0.31004     0.30967     0.17874
 Rotational constants (GHZ):           6.46020     6.45251     3.72432
 Zero-point vibrational energy     371342.9 (Joules/Mol)
                                   88.75309 (Kcal/Mol)
 Warning -- explicit consideration of   4 degrees of freedom as
           vibrations may cause significant error
 Vibrational temperatures:     31.29   383.53   795.75   890.84  1116.26
          (Kelvin)           1191.51  1259.75  1279.25  1306.10  1316.44
                             1409.31  1456.74  1504.84  1525.07  1715.04
                             1755.00  1786.74  1801.09  1864.37  1901.81
                             1929.05  1957.73  1969.19  1972.63  2181.09
                             2189.68  2197.20  2197.91  2236.03  4366.65
                             4373.74  4384.98  4388.16  4410.22  4436.44
                             4449.98  4455.52  4458.23  4479.31

 Zero-point correction=                           0.141437 (Hartree/Particle)
 Thermal correction to Energy=                    0.146615
 Thermal correction to Enthalpy=                  0.147560
 Thermal correction to Gibbs Free Energy=         0.112162
 Sum of electronic and zero-point Energies=           -196.415649
 Sum of electronic and thermal Energies=              -196.410470
 Sum of electronic and thermal Enthalpies=            -196.409526
 Sum of electronic and thermal Free Energies=         -196.444924

                     E (Thermal)             CV                S
                      KCal/Mol        Cal/Mol-Kelvin    Cal/Mol-Kelvin
 Total                   92.003             18.398             74.502
 Electronic               0.000              0.000              0.000
 Translational            0.889              2.981             38.658
 Rotational               0.889              2.981             25.141
 Vibrational             90.225             12.436             10.703
 Vibration     1          0.593              1.985              6.468
 Vibration     2          0.672              1.734              1.618
 Vibration     3          0.908              1.133              0.538
 Vibration     4          0.979              0.991              0.418

 Normal termination of Gaussian 09 at Sat Jun  6 00:37:14 2015.
