 Gaussian 09, Revision A.01,
 Gaussian 09:  EM64L-G09RevA.01  8-May-2009

 ----------------------------------------------
 #p B3LYP/6-31G(d) opt=tight int=ultrafine freq
 ----------------------------------------------

 ---------------------------------------------
 using B3LYP/6-31G(d) to do opt and freq calc.
 ---------------------------------------------
 Symbolic Z-matrix:
 Charge =  0 Multiplicity = 1

 SCF Done:  E(RB3LYP) =  -197.771131157     A.U. after   11 cycles
 Optimization completed.
    -- Stationary point found.
 Normal termination of Gaussian 09 at Sun Oct  4 11:28:50 2015.

 --------------------------------------------------------------------
 #P Geom=AllCheck Guess=TCheck SCRF=Check GenChk RB3LYP/6-31G(d) Freq
 --------------------------------------------------------------------

 using B3LYP/6-31G(d) to do opt and freq calc.
 ---------------------------------------------
 Redundant internal coordinates taken from checkpoint file:
 /state/partition1/Gau-3853.chk
 Charge =  0 Multiplicity = 1

                         Standard orientation:
 ---------------------------------------------------------------------
 Center     Atomic      Atomic             Coordinates (Angstroms)
 Number     Number       Type             X           Y           Z
 ---------------------------------------------------------------------
      1          6           0       -1.742256   -0.821724   -0.010751
      2          1           0       -1.922228   -0.857823    1.071889
      3          1           0       -1.648515   -1.854923   -0.366329
      4          1           0       -2.631968   -0.384600   -0.479570
      5          6           0       -0.482643   -0.002681   -0.329739
      6          1           0       -0.349146   -0.003316   -1.423210
      7          6           0        0.764450   -0.664680    0.289758
      8          1           0        0.773650   -1.725323    0.001711
      9          1           0        0.667104   -0.649695    1.385801
     10          6           0        2.101623   -0.032686   -0.113732
     11          1           0        2.190482    1.001288    0.237340
     12          1           0        2.943219   -0.594430    0.307619
     13          1           0        2.221892   -0.024561   -1.204476
     14          6           0       -0.659568    1.455052    0.121802
     15          1           0       -0.773233    1.513964    1.212642
     16          1           0        0.194493    2.080646   -0.158939
     17          1           0       -1.555386    1.899089   -0.328505
 ---------------------------------------------------------------------

 SCF Done:  E(RB3LYP) =  -197.771131157     A.U. after    1 cycles

 The electronic state is 1-A.
 Alpha  occ. eigenvalues --  -10.18292 -10.17482 -10.16988 -10.16815 -10.16803
 Alpha  occ. eigenvalues --   -0.80188  -0.72621  -0.67625  -0.61946  -0.55029
 Alpha  occ. eigenvalues --   -0.45918  -0.43782  -0.42332  -0.40518  -0.37933
 Alpha  occ. eigenvalues --   -0.37563  -0.35470  -0.34421  -0.31669  -0.31473
 Alpha  occ. eigenvalues --   -0.30888
 Alpha virt. eigenvalues --    0.08639   0.12260   0.13051   0.14222   0.15575
 Alpha virt. eigenvalues --    0.16320   0.17216   0.17881   0.18601   0.19391
 Alpha virt. eigenvalues --    0.21414   0.22519   0.24059   0.25834   0.26254

 Mulliken atomic charges:
              1
     1  C   -0.441618
     2  H    0.137697
     3  H    0.138449
     4  H    0.138344
     5  C   -0.059242
     6  H    0.118225
     7  C   -0.239637
     8  H    0.127364
     9  H    0.125543
    10  C   -0.448007
    11  H    0.145507
    12  H    0.141453
    13  H    0.140333
    14  C   -0.443929
    15  H    0.136853
    16  H    0.143652
    17  H    0.139013
 Sum of Mulliken atomic charges =   0.00000

 Dipole moment (field-independent basis, Debye):
    X=              0.0276    Y=             -0.0236    Z=             -0.0485  Tot=              0.0606
 Quadrupole moment (field-independent basis, Debye-Ang):
   XX=            -35.2732   YY=            -35.0374   ZZ=            -34.5622
   XY=             -0.2138   XZ=              0.1689   YZ=              0.0564

  Exact polarizability:  59.468  -0.241  53.832   0.190  -0.051  49.561
 Approx polarizability:  71.231  -0.703  70.777   0.256   0.125  71.835

                     1                      2                      3
                     A                      A                      A
 Frequencies --    96.1859               218.4841               228.0965
 Red. masses --     1.7246                 1.0451                 1.1801
 Frc consts  --     0.0094                 0.0294                 0.0362
 IR Inten    --     0.0017                 0.0358                 0.0117

                     4                      5                      6
                     A                      A                      A
 Frequencies --   263.0985               267.7008               365.8838
 Red. masses --     1.2423                 1.7442                 2.1076
 Frc consts  --     0.0507                 0.0736                 0.1662
 IR Inten    --     0.0162                 0.0044                 0.0011

                     7                      8                      9
                     A                      A                      A
 Frequencies --   415.6345               456.9531               770.2048
 Red. masses --     1.9451                 2.4204                 1.7486
 Frc consts  --     0.1980                 0.2978                 0.6112
 IR Inten    --     0.1895                 0.2271                 1.8406

                    10                     11                     12
                     A                      A                      A
 Frequencies --   805.7390               922.7148               938.8475
 Red. masses --     1.3894                 2.1046                 1.1775
 Frc consts  --     0.5315                 1.0557                 0.6115
 IR Inten    --     0.6750                 0.4471                 0.9526

                    13                     14                     15
                     A                      A                      A
 Frequencies --   974.0526               995.1366              1035.4956
 Red. masses --     1.4421                 1.1858                 1.4881
 Frc consts  --     0.8061                 0.6919                 0.9401
 IR Inten    --     0.1301                 3.8782                 2.4037

                    16                     17                     18
                     A                      A                      A
 Frequencies --  1054.5008              1180.3319              1206.9501
 Red. masses --     2.7403                 1.9523                 1.7303
 Frc consts  --     1.7953                 1.6025                 1.4850
 IR Inten    --     0.2257                 2.5595                 1.7937

                    19                     20                     21
                     A                      A                      A
 Frequencies --  1218.5155              1313.6534              1343.9661
 Red. masses --     1.9623                 1.2467                 1.2562
 Frc consts  --     1.7167                 1.2675                 1.3369
 IR Inten    --     0.1818                 1.6931                 4.7232

                    22                     23                     24
                     A                      A                      A
 Frequencies --  1387.2417              1404.8148              1429.5178
 Red. masses --     1.3397                 1.4990                 1.2839
 Frc consts  --     1.5190                 1.7429                 1.5458
 IR Inten    --     3.1293                 0.1191                 4.0280

                    25                     26                     27
                     A                      A                      A
 Frequencies --  1441.1792              1448.9240              1511.1033
 Red. masses --     1.2443                 1.2297                 1.0645
 Frc consts  --     1.5227                 1.5211                 1.4321
 IR Inten    --     2.6830                 3.2120                 0.1766

                    28                     29                     30
                     A                      A                      A
 Frequencies --  1519.0205              1526.1711              1530.7357
 Red. masses --     1.0439                 1.0542                 1.0417
 Frc consts  --     1.4191                 1.4467                 1.4381
 IR Inten    --     0.1638                 1.0372                 9.9707

                    31                     32                     33
                     A                      A                      A
 Frequencies --  1535.4134              1538.5916              1544.1793
 Red. masses --     1.0640                 1.0580                 1.0477
 Frc consts  --     1.4780                 1.4757                 1.4719
 IR Inten    --     1.9518                 8.2324                 3.2249

                    34                     35                     36
                     A                      A                      A
 Frequencies --  3000.6903              3018.5720              3034.0018
 Red. masses --     1.0820                 1.0609                 1.0363
 Frc consts  --     5.7404                 5.6952                 5.6203
 IR Inten    --    12.1635                32.7415                30.7970

                    37                     38                     39
                     A                      A                      A
 Frequencies --  3039.8461              3044.0013              3052.2465
 Red. masses --     1.0378                 1.0402                 1.0986
 Frc consts  --     5.6504                 5.6787                 6.0300
 IR Inten    --    36.6130                19.0988                25.7296

                    40                     41                     42
                     A                      A                      A
 Frequencies --  3096.0105              3101.9006              3106.3865
 Red. masses --     1.1011                 1.1008                 1.1013
 Frc consts  --     6.2184                 6.2402                 6.2614
 IR Inten    --     5.3381                44.7052                63.5654

                    43                     44                     45
                     A                      A                      A
 Frequencies --  3106.7725              3112.1599              3120.3119
 Red. masses --     1.1022                 1.1019                 1.1004
 Frc consts  --     6.2679                 6.2878                 6.3122
 IR Inten    --    38.3609                66.1031                38.8903

 - Thermochemistry -
 -------------------
 Temperature   298.150 Kelvin.  Pressure   1.00000 Atm.
 Atom     1 has atomic number  6 and mass  12.00000

 Molecular mass:    72.09390 amu.
 Principal axes and moments of inertia in atomic units:
                           1         2         3
     Eigenvalues --   248.73113 543.07860 710.55700
           X            0.99997   0.00749  -0.00368
           Y           -0.00749   0.99997   0.00023
           Z            0.00368  -0.00020   0.99999
 This molecule is an asymmetric top.
 Rotational symmetry number  1.
 Rotational temperatures (Kelvin)      0.34822     0.15949     0.12190
 Rotational constants (GHZ):           7.25579     3.32317     2.53990
 Zero-point vibrational energy     423011.1 (Joules/Mol)
                                  101.10209 (Kcal/Mol)
 Warning -- explicit consideration of   8 degrees of freedom as
           vibrations may cause significant error
 Vibrational temperatures:    138.39   314.35   328.18   378.54   385.16
          (Kelvin)            526.42   598.00   657.45  1108.15  1159.28
                             1327.58  1350.79  1401.44  1431.78  1489.85
                             1517.19  1698.23  1736.53  1753.17  1890.05
                             1933.67  1995.93  2021.21  2056.75  2073.53
                             2084.68  2174.14  2185.53  2195.82  2202.38
                             2209.11  2213.69  2221.73  4317.32  4343.05
                             4365.25  4373.66  4379.63  4391.50  4454.46
                             4462.94  4469.39  4469.95  4477.70  4489.43

 Zero-point correction=                           0.161116 (Hartree/Particle)
 Thermal correction to Energy=                    0.168103
 Thermal correction to Enthalpy=                  0.169047
 Thermal correction to Gibbs Free Energy=         0.131227
 Sum of electronic and zero-point Energies=           -197.610015
 Sum of electronic and thermal Energies=              -197.603028
 Sum of electronic and thermal Enthalpies=            -197.602084
 Sum of electronic and thermal Free Energies=         -197.639904

                     E (Thermal)             CV                S
                      KCal/Mol        Cal/Mol-Kelvin    Cal/Mol-Kelvin
 Total                  105.486             24.881             79.600
 Electronic               0.000              0.000              0.000
 Translational            0.889              2.981             38.743
 Rotational               0.889              2.981             26.065
 Vibrational            103.709             18.920             14.792
 Vibration     1          0.603              1.952              3.530
 Vibration     2          0.646              1.813              1.972
 Vibration     3          0.651              1.798              1.894
 Vibration     4          0.670              1.740              1.641
 Vibration     5          0.673              1.732              1.611
 Vibration     6          0.739              1.542              1.097
 Vibration     7          0.779              1.436              0.907
 Vibration     8          0.815              1.346              0.775

 Optimization completed.
    -- Stationary point found.
 Normal termination of Gaussian 09 at Sun Oct  4 11:31:41 2015.
