 Gaussian 09, Revision A.01,
 Gaussian 09:  EM64L-G09RevA.01  8-May-2009

 ----------------------------------------------
 #p B3LYP/6-31G(d) opt=tight int=ultrafine freq
 ----------------------------------------------

 ---------------------------------------------
 using B3LYP/6-31G(d) to do opt and freq calc.
 ---------------------------------------------
 Symbolic Z-matrix:
 Charge =  0 Multiplicity = 1

 SCF Done:  E(RB3LYP) =  -197.771763370     A.U. after   11 cycles
 SCF Done:  E(RB3LYP) =  -197.771763666     A.U. after    6 cycles
 SCF Done:  E(RB3LYP) =  -197.771763686     A.U. after    5 cycles
 SCF Done:  E(RB3LYP) =  -197.771763687     A.U. after    4 cycles
 Optimization completed.
    -- Stationary point found.
 Normal termination of Gaussian 09 at Sun Oct  4 11:29:31 2015.

 --------------------------------------------------------------------
 #P Geom=AllCheck Guess=TCheck SCRF=Check GenChk RB3LYP/6-31G(d) Freq
 --------------------------------------------------------------------

 using B3LYP/6-31G(d) to do opt and freq calc.
 ---------------------------------------------
 Redundant internal coordinates taken from checkpoint file:
 /state/partition1/Gau-3830.chk
 Charge =  0 Multiplicity = 1

                         Standard orientation:
 ---------------------------------------------------------------------
 Center     Atomic      Atomic             Coordinates (Angstroms)
 Number     Number       Type             X           Y           Z
 ---------------------------------------------------------------------
      1          6           0       -2.560911    0.323626    0.000000
      2          1           0       -2.607394    0.970851   -0.884601
      3          1           0       -2.607394    0.970850    0.884602
      4          1           0       -3.458969   -0.304770   -0.000001
      5          6           0       -1.283938   -0.522982   -0.000001
      6          1           0       -1.283425   -1.184646    0.878036
      7          1           0       -1.283425   -1.184644   -0.878039
      8          6           0        0.000000    0.316408    0.000000
      9          1           0        0.000000    0.979272    0.878510
     10          1           0        0.000000    0.979273   -0.878509
     11          6           0        1.283938   -0.522982    0.000000
     12          1           0        1.283425   -1.184644   -0.878038
     13          1           0        1.283425   -1.184646    0.878037
     14          6           0        2.560911    0.323626    0.000001
     15          1           0        2.607393    0.970850    0.884603
     16          1           0        3.458969   -0.304770    0.000000
     17          1           0        2.607394    0.970851   -0.884600
 ---------------------------------------------------------------------

 SCF Done:  E(RB3LYP) =  -197.771763687     A.U. after    1 cycles

 The electronic state is 1-A.
 Alpha  occ. eigenvalues --  -10.17596 -10.17595 -10.17354 -10.16998 -10.16998
 Alpha  occ. eigenvalues --   -0.79442  -0.74436  -0.67046  -0.59445  -0.56993
 Alpha  occ. eigenvalues --   -0.46917  -0.43139  -0.42655  -0.39736  -0.38995
 Alpha  occ. eigenvalues --   -0.37280  -0.34859  -0.33155  -0.32168  -0.31732
 Alpha  occ. eigenvalues --   -0.31079
 Alpha virt. eigenvalues --    0.09364   0.11117   0.12806   0.13573   0.15344
 Alpha virt. eigenvalues --    0.17481   0.17495   0.17880   0.19740   0.19910
 Alpha virt. eigenvalues --    0.19956   0.20544   0.22738   0.25599   0.27596

 Mulliken atomic charges:
              1
     1  C   -0.441400
     2  H    0.140889
     3  H    0.140889
     4  H    0.140937
     5  C   -0.246473
     6  H    0.129504
     7  H    0.129504
     8  C   -0.238618
     9  H    0.125459
    10  H    0.125459
    11  C   -0.246473
    12  H    0.129504
    13  H    0.129504
    14  C   -0.441400
    15  H    0.140889
    16  H    0.140937
    17  H    0.140889
 Sum of Mulliken atomic charges =   0.00000

 Dipole moment (field-independent basis, Debye):
    X=              0.0000    Y=             -0.0546    Z=              0.0000  Tot=              0.0546
 Quadrupole moment (field-independent basis, Debye-Ang):
   XX=            -35.5168   YY=            -35.0332   ZZ=            -34.2594
   XY=              0.0000   XZ=              0.0000   YZ=              0.0000

  Exact polarizability:  63.772   0.000  51.006   0.000   0.000  49.720
 Approx polarizability:  70.198   0.000  70.286   0.000   0.000  71.747

                     1                      2                      3
                     A                      A                      A
 Frequencies --   109.2497               112.6660               178.0378
 Red. masses --     1.5305                 2.3008                 2.5299
 Frc consts  --     0.0108                 0.0172                 0.0472
 IR Inten    --     0.0000                 0.0043                 0.0229

                     4                      5                      6
                     A                      A                      A
 Frequencies --   246.1670               253.1913               396.2908
 Red. masses --     1.0786                 1.1534                 2.3444
 Frc consts  --     0.0385                 0.0436                 0.2169
 IR Inten    --     0.0019                 0.0000                 0.0032

                     7                      8                      9
                     A                      A                      A
 Frequencies --   397.4193               739.4407               772.2675
 Red. masses --     3.3541                 1.0649                 1.1121
 Frc consts  --     0.3121                 0.3431                 0.3908
 IR Inten    --     0.0028                 3.9935                 0.0000

                    10                     11                     12
                     A                      A                      A
 Frequencies --   874.6591               881.3353               933.7523
 Red. masses --     1.1551                 1.7553                 2.1899
 Frc consts  --     0.5207                 0.8033                 1.1250
 IR Inten    --     1.3887                 1.0552                 2.0655

                    13                     14                     15
                     A                      A                      A
 Frequencies --  1003.5940              1049.1330              1052.4571
 Red. masses --     1.1202                 1.9044                 2.9607
 Frc consts  --     0.6647                 1.2350                 1.9322
 IR Inten    --     0.0000                 1.5735                 0.4319

                    16                     17                     18
                     A                      A                      A
 Frequencies --  1082.6554              1173.4811              1223.3131
 Red. masses --     1.9495                 2.2566                 1.8139
 Frc consts  --     1.3463                 1.8309                 1.5993
 IR Inten    --     1.0264                 1.0382                 0.0949

                    19                     20                     21
                     A                      A                      A
 Frequencies --  1282.9798              1308.0141              1341.0543
 Red. masses --     1.3254                 1.3175                 1.1531
 Frc consts  --     1.2854                 1.3281                 1.2218
 IR Inten    --     0.0000                 6.2849                 0.5811

                    22                     23                     24
                     A                      A                      A
 Frequencies --  1346.7656              1388.7622              1424.4664
 Red. masses --     1.0484                 1.4155                 1.6269
 Frc consts  --     1.1204                 1.6085                 1.9450
 IR Inten    --     0.0000                 0.1411                 2.0962

                    25                     26                     27
                     A                      A                      A
 Frequencies --  1439.7488              1442.6270              1515.1840
 Red. masses --     1.2292                 1.2593                 1.0712
 Frc consts  --     1.5012                 1.5442                 1.4489
 IR Inten    --     0.2941                 1.9523                 0.0036

                    28                     29                     30
                     A                      A                      A
 Frequencies --  1517.3272              1527.1862              1529.5298
 Red. masses --     1.0629                 1.0578                 1.0401
 Frc consts  --     1.4418                 1.4536                 1.4337
 IR Inten    --     0.7389                 0.3133                11.5771

                    31                     32                     33
                     A                      A                      A
 Frequencies --  1530.3262              1537.0098              1544.1088
 Red. masses --     1.0420                 1.0724                 1.0884
 Frc consts  --     1.4377                 1.4926                 1.5289
 IR Inten    --     0.0000                 1.1696                 3.9956

                    34                     35                     36
                     A                      A                      A
 Frequencies --  3010.7718              3020.7813              3028.6747
 Red. masses --     1.0583                 1.0595                 1.0604
 Frc consts  --     5.6520                 5.6961                 5.7307
 IR Inten    --     6.6467                 0.0654                81.4386

                    37                     38                     39
                     A                      A                      A
 Frequencies --  3033.0239              3040.0437              3041.2321
 Red. masses --     1.1005                 1.0355                 1.0360
 Frc consts  --     5.9647                 5.6387                 5.6457
 IR Inten    --     0.2568                44.7767                31.4233

                    40                     41                     42
                     A                      A                      A
 Frequencies --  3050.3927              3067.7606              3104.3423
 Red. masses --     1.1036                 1.1053                 1.1029
 Frc consts  --     6.0500                 6.1290                 6.2624
 IR Inten    --     0.0000                55.1786                 0.0000

                    43                     44                     45
                     A                      A                      A
 Frequencies --  3105.9822              3109.6849              3109.9858
 Red. masses --     1.1027                 1.1021                 1.1017
 Frc consts  --     6.2677                 6.2790                 6.2780
 IR Inten    --   130.6199                33.9731                54.7438

 - Thermochemistry -
 -------------------
 Temperature   298.150 Kelvin.  Pressure   1.00000 Atm.
 Atom     1 has atomic number  6 and mass  12.00000

 Molecular mass:    72.09390 amu.
 Principal axes and moments of inertia in atomic units:
                           1         2         3
     Eigenvalues --   105.95836 938.98878 989.10899
           X            1.00000   0.00000   0.00000
           Y            0.00000   1.00000   0.00000
           Z            0.00000   0.00000   1.00000
 This molecule is an asymmetric top.
 Rotational symmetry number  1.
 Rotational temperatures (Kelvin)      0.81743     0.09224     0.08757
 Rotational constants (GHZ):          17.03255     1.92201     1.82461
 Zero-point vibrational energy     423937.9 (Joules/Mol)
                                  101.32358 (Kcal/Mol)
 Warning -- explicit consideration of   7 degrees of freedom as
           vibrations may cause significant error
 Vibrational temperatures:    157.19   162.10   256.16   354.18   364.29
          (Kelvin)            570.17   571.80  1063.89  1111.12  1258.44
                             1268.04  1343.46  1443.95  1509.47  1514.25
                             1557.70  1688.38  1760.07  1845.92  1881.94
                             1929.48  1937.69  1998.12  2049.49  2071.47
                             2075.62  2180.01  2183.09  2197.28  2200.65
                             2201.80  2211.41  2221.63  4331.82  4346.23
                             4357.58  4363.84  4373.94  4375.65  4388.83
                             4413.82  4466.45  4468.81  4474.14  4474.57

 Zero-point correction=                           0.161469 (Hartree/Particle)
 Thermal correction to Energy=                    0.168530
 Thermal correction to Enthalpy=                  0.169475
 Thermal correction to Gibbs Free Energy=         0.131152
 Sum of electronic and zero-point Energies=           -197.610294
 Sum of electronic and thermal Energies=              -197.603233
 Sum of electronic and thermal Enthalpies=            -197.602289
 Sum of electronic and thermal Free Energies=         -197.640611

                     E (Thermal)             CV                S
                      KCal/Mol        Cal/Mol-Kelvin    Cal/Mol-Kelvin
 Total                  105.754             24.317             80.656
 Electronic               0.000              0.000              0.000
 Translational            0.889              2.981             38.743
 Rotational               0.889              2.981             26.090
 Vibrational            103.977             18.356             15.824
 Vibration     1          0.606              1.942              3.282
 Vibration     2          0.607              1.939              3.222
 Vibration     3          0.628              1.869              2.349
 Vibration     4          0.661              1.769              1.758
 Vibration     5          0.664              1.757              1.708
 Vibration     6          0.763              1.478              0.976
 Vibration     7          0.764              1.476              0.972

 Optimization completed.
    -- Stationary point found.
 Normal termination of Gaussian 09 at Sun Oct  4 11:32:05 2015.
