 Gaussian 09, Revision A.01,
 Gaussian 09:  EM64L-G09RevA.01  8-May-2009

 -----------------------------------
 #p ub3lyp/6-31g(d) opt=modredundant
 -----------------------------------

 ---------------------------------------------------
 C3H7O2_62_b3631gd using cbs-qb3 to calculate energy
 ---------------------------------------------------
 Symbolic Z-matrix:
 Charge =  0 Multiplicity = 2

 SCF Done:  E(UB3LYP) =  -268.848708542     A.U. after   20 cycles
 Optimization completed.
    -- Stationary point found.
 SCF Done:  E(UB3LYP) =  -268.847203524     A.U. after   15 cycles
 SCF Done:  E(UB3LYP) =  -268.848335894     A.U. after   18 cycles
 SCF Done:  E(UB3LYP) =  -268.848422697     A.U. after   14 cycles
 SCF Done:  E(UB3LYP) =  -268.848424807     A.U. after   12 cycles
 SCF Done:  E(UB3LYP) =  -268.848425075     A.U. after   11 cycles
 SCF Done:  E(UB3LYP) =  -268.848425109     A.U. after   11 cycles
 SCF Done:  E(UB3LYP) =  -268.848425108     A.U. after   11 cycles
 SCF Done:  E(UB3LYP) =  -268.848425103     A.U. after   11 cycles
 Optimization completed.
 SCF Done:  E(UB3LYP) =  -268.846368571     A.U. after   15 cycles
 SCF Done:  E(UB3LYP) =  -268.846560683     A.U. after   14 cycles
 SCF Done:  E(UB3LYP) =  -268.846277055     A.U. after   15 cycles
 SCF Done:  E(UB3LYP) =  -268.847635568     A.U. after   15 cycles
 SCF Done:  E(UB3LYP) =  -268.847654157     A.U. after   13 cycles
 SCF Done:  E(UB3LYP) =  -268.847152300     A.U. after   15 cycles
 SCF Done:  E(UB3LYP) =  -268.848410499     A.U. after   15 cycles
 SCF Done:  E(UB3LYP) =  -268.848427194     A.U. after   13 cycles
    -- Stationary point found.
 SCF Done:  E(UB3LYP) =  -268.847485875     A.U. after   15 cycles
 SCF Done:  E(UB3LYP) =  -268.848691565     A.U. after   15 cycles
 SCF Done:  E(UB3LYP) =  -268.848708476     A.U. after   12 cycles
 Optimization completed.
    -- Stationary point found.

                         Standard orientation:
 ---------------------------------------------------------------------
 Center     Atomic      Atomic             Coordinates (Angstroms)
 Number     Number       Type             X           Y           Z
 ---------------------------------------------------------------------
      1          6           0       -1.912702   -0.706699    0.142005
      2          1           0       -1.364456   -1.570834   -0.246132
      3          1           0       -2.930724   -0.743478   -0.259558
      4          1           0       -1.977555   -0.812082    1.231716
      5          6           0       -1.221692    0.605183   -0.245941
      6          1           0       -1.202340    0.716646   -1.337467
      7          1           0       -1.787956    1.461304    0.143545
      8          6           0        0.199111    0.725694    0.282519
      9          1           0        0.657006    1.689723    0.039346
     10          1           0        0.263654    0.559038    1.362651
     11          8           0        1.005494   -0.308425   -0.363073
     12          8           0        2.238765   -0.322248    0.112374
 ---------------------------------------------------------------------

 The electronic state is 2-A.
 Alpha  occ. eigenvalues --  -19.25910 -19.21072 -10.24930 -10.20366 -10.18581
 Alpha  occ. eigenvalues --   -1.17985  -0.87909  -0.77729  -0.68525  -0.60542
 Alpha  occ. eigenvalues --   -0.51821  -0.51469  -0.47248  -0.44705  -0.42986
 Alpha  occ. eigenvalues --   -0.40584  -0.36469  -0.35992  -0.35479  -0.27156
 Alpha  occ. eigenvalues --   -0.26997
 Alpha virt. eigenvalues --    0.07661   0.10482   0.12978   0.13184   0.14380
 Alpha virt. eigenvalues --    0.15232   0.17079   0.18073   0.19277   0.21725
 Alpha virt. eigenvalues --    0.25280   0.49513   0.50310   0.51877   0.53966

  Beta  occ. eigenvalues --  -19.24973 -19.19200 -10.24971 -10.20368 -10.18580
  Beta  occ. eigenvalues --   -1.15312  -0.85337  -0.76706  -0.67884  -0.60284
  Beta  occ. eigenvalues --   -0.50482  -0.49126  -0.46441  -0.43834  -0.41282
  Beta  occ. eigenvalues --   -0.38259  -0.36098  -0.35560  -0.34253  -0.25243
  Beta virt. eigenvalues --   -0.09985   0.08086   0.10987   0.13096   0.13251
  Beta virt. eigenvalues --    0.14829   0.15530   0.17473   0.18645   0.19373
  Beta virt. eigenvalues --    0.21832   0.25350   0.49617   0.50385   0.52009

 Mulliken atomic charges:
              1
     1  C   -0.448016
     2  H    0.170387
     3  H    0.152080
     4  H    0.146901
     5  C   -0.289289
     6  H    0.159672
     7  H    0.151640
     8  C   -0.023811
     9  H    0.164031
    10  H    0.162845
    11  O   -0.177148
    12  O   -0.169294
 Sum of Mulliken atomic charges =   0.00000

 Dipole moment (field-independent basis, Debye):
    X=             -2.4864    Y=              1.4184    Z=              0.4418  Tot=              2.8964
 Quadrupole moment (field-independent basis, Debye-Ang):
   XX=            -34.7793   YY=            -29.7717   ZZ=            -30.1027
   XY=              1.1840   XZ=              0.1843   YZ=             -0.2526

 Normal termination of Gaussian 09 at Wed Apr  1 22:29:59 2015.
