 Gaussian 09, Revision C.01,
 Gaussian 09:  EM64L-G09RevC.01 23-Sep-2011

 --------------------------
 #p cbs-qb3 opt=calcfc freq
 --------------------------

 (Enter /usr/caen/gaussian-09revc/g09/l101.exe)
 ------------------------------------
 C3H6O_2 using cbs-qb3 to cal. energy
 ------------------------------------
 Charge =  0 Multiplicity = 1

 SCF Done:  E(RB3LYP) =  -193.213003989     A.U. after   13 cycles
 SCF Done:  E(RB3LYP) =  -193.213024950     A.U. after   10 cycles
 SCF Done:  E(RB3LYP) =  -193.213024970     A.U. after    8 cycles
 Optimization completed on the basis of negligible forces.
    -- Stationary point found.
 Normal termination of Gaussian 09 at Mon Mar 10 22:03:00 2014.

 ---------------------------------------------------------
 #P Geom=AllCheck Guess=TCheck SCRF=Check B3LYP/CBSB7 Freq
 ---------------------------------------------------------

 Structure from the checkpoint file:  C3H6O_2.chk
 ------------------------------------
 C3H6O_2 using cbs-qb3 to cal. energy
 ------------------------------------
 Charge =  0 Multiplicity = 1

 SCF Done:  E(RB3LYP) =  -193.213024970     A.U. after    1 cycles

  Exact polarizability:  40.558   0.000  41.096  -0.040   0.000  29.327
 Approx polarizability:  47.711   0.000  64.661  -0.122   0.000  41.349

                     1                      2                      3
                     A                      A                      A
 Frequencies --    55.8649               139.0916               377.3031
 Red. masses --     1.0173                 1.1255                 2.1869
 Frc consts  --     0.0019                 0.0128                 0.1834
 IR Inten    --     0.0125                 0.0400                 1.1539

                     4                      5                      6
                     A                      A                      A
 Frequencies --   488.9491               535.5610               779.2121
 Red. masses --     1.9921                 3.5476                 3.6036
 Frc consts  --     0.2806                 0.5995                 1.2891
 IR Inten    --     0.3126                15.0235                 1.5065

                     7                      8                      9
                     A                      A                      A
 Frequencies --   882.5616               883.9680              1083.1612
 Red. masses --     1.2118                 1.5772                 1.5611
 Frc consts  --     0.5561                 0.7261                 1.0791
 IR Inten    --     0.0434                 9.4630                 0.0358

                    10                     11                     12
                     A                      A                      A
 Frequencies --  1117.2878              1230.3440              1383.0491
 Red. masses --     1.9786                 2.8013                 1.2282
 Frc consts  --     1.4552                 2.4984                 1.3842
 IR Inten    --     3.1068                76.5248                19.2422

                    13                     14                     15
                     A                      A                      A
 Frequencies --  1385.4693              1461.1577              1466.3257
 Red. masses --     1.4055                 1.0427                 1.0529
 Frc consts  --     1.5895                 1.3116                 1.3338
 IR Inten    --    64.5633                 1.0873                 4.7519

                    16                     17                     18
                     A                      A                      A
 Frequencies --  1471.1751              1488.1497              1804.1774
 Red. masses --     1.0635                 1.0460                 9.8034
 Frc consts  --     1.3562                 1.3648                18.8013
 IR Inten    --    23.6753                22.2238               174.5627

                    19                     20                     21
                     A                      A                      A
 Frequencies --  3024.4844              3031.3425              3080.1345
 Red. masses --     1.0373                 1.0372                 1.0985
 Frc consts  --     5.5905                 5.6156                 6.1406
 IR Inten    --     2.0352                 6.8308                 0.4699

                    22                     23                     24
                     A                      A                      A
 Frequencies --  3087.1125              3139.8611              3141.0102
 Red. masses --     1.0988                 1.1016                 1.1020
 Frc consts  --     6.1698                 6.3988                 6.4058
 IR Inten    --    24.7735                12.9452                 9.9662

 - Thermochemistry -
 -------------------
 Temperature   298.150 Kelvin.  Pressure   1.00000 Atm.
 Atom     1 has atomic number  6 and mass  12.00000

 Molecular mass:    58.04186 amu.
 Principal axes and moments of inertia in atomic units:
                           1         2         3
     Eigenvalues --   177.65536 212.91681 368.30548
           X            1.00000   0.00000  -0.00046
           Y            0.00000   1.00000   0.00000
           Z            0.00046   0.00000   1.00000
 This molecule is an asymmetric top.
 Rotational symmetry number  1.
 Rotational temperatures (Kelvin)      0.48754     0.40680     0.23517
 Rotational constants (GHZ):          10.15866     8.47627     4.90012
 Zero-point vibrational energy     218538.3 (Joules/Mol)
                                   52.23191 (Kcal/Mol)
 Warning -- explicit consideration of   5 degrees of freedom as
           vibrations may cause significant error
 Vibrational temperatures:     80.38   200.12   542.85   703.49   770.55
          (Kelvin)           1121.11  1269.81  1271.83  1558.43  1607.53
                             1770.19  1989.90  1993.38  2102.28  2109.71
                             2116.69  2141.11  2595.81  4351.55  4361.42
                             4431.62  4441.66  4517.55  4519.21

 Zero-point correction=                           0.083237 (Hartree/Particle)
 Thermal correction to Energy=                    0.088622
 Thermal correction to Enthalpy=                  0.089566
 Thermal correction to Gibbs Free Energy=         0.055001
 Sum of electronic and zero-point Energies=           -193.129788
 Sum of electronic and thermal Energies=              -193.124403
 Sum of electronic and thermal Enthalpies=            -193.123459
 Sum of electronic and thermal Free Energies=         -193.158024

                     E (Thermal)             CV                S
                      KCal/Mol        Cal/Mol-Kelvin    Cal/Mol-Kelvin
 Total                   55.611             16.874             72.749
 Electronic               0.000              0.000              0.000
 Translational            0.889              2.981             38.096
 Rotational               0.889              2.981             24.147
 Vibrational             53.834             10.912             10.505
 Vibration     1          0.596              1.975              4.598
 Vibration     2          0.615              1.914              2.816
 Vibration     3          0.748              1.519              1.050
 Vibration     4          0.845              1.275              0.686
 Vibration     5          0.891              1.171              0.575

 Optimization completed on the basis of negligible forces.
    -- Stationary point found.
 Normal termination of Gaussian 09 at Mon Mar 10 22:03:20 2014.

 -----------------------------------------------------------
 #P Geom=AllCheck Guess=TCheck SCRF=Check CCSD(T)/6-31+G(d')
 -----------------------------------------------------------

 Structure from the checkpoint file:  C3H6O_2.chk
 ------------------------------------
 C3H6O_2 using cbs-qb3 to cal. energy
 ------------------------------------
 Charge =  0 Multiplicity = 1

 SCF Done:  E(RHF) =  -191.966591482     A.U. after   12 cycles
 E2 =    -0.5795292059D+00 EUMP2 =    -0.19254612068834D+03
 CCSD(T)
 CCSD(T)= -0.19260188586D+03
 2241\CCSD(T)=-192.6018859\RMSD=5.694e-09\PG=C01 [X(C3H6O1)]\\@
 Normal termination of Gaussian 09 at Mon Mar 10 22:04:26 2014.

 -----------------------------------------------------
 #P Geom=AllCheck Guess=TCheck SCRF=Check MP4SDQ/CBSB4
 -----------------------------------------------------

 Structure from the checkpoint file:  C3H6O_2.chk
 ------------------------------------
 C3H6O_2 using cbs-qb3 to cal. energy
 ------------------------------------
 Charge =  0 Multiplicity = 1

 SCF Done:  E(RHF) =  -191.975087721     A.U. after   10 cycles
 E2 =    -0.6173762934D+00 EUMP2 =    -0.19259246401451D+03
 Normal termination of Gaussian 09 at Mon Mar 10 22:04:35 2014.

 ----------------------------------------------------------------------
 #P Geom=AllCheck Guess=TCheck SCRF=Check MP2/CBSB3 CBSExtrap=(NMin=10,
 MinPop)
 ----------------------------------------------------------------------

 Structure from the checkpoint file:  C3H6O_2.chk
 ------------------------------------
 C3H6O_2 using cbs-qb3 to cal. energy
 ------------------------------------
 Charge =  0 Multiplicity = 1

                         Standard orientation:
 ---------------------------------------------------------------------
 Center     Atomic      Atomic             Coordinates (Angstroms)
 Number     Number       Type             X           Y           Z
 ---------------------------------------------------------------------
      1          6           0       -1.291452   -0.613446   -0.001590
      2          1           0       -2.141350    0.061944   -0.088443
      3          1           0       -1.376386   -1.188198    0.926615
      4          1           0       -1.301769   -1.334361   -0.824780
      5          6           0        1.291452   -0.613446    0.001590
      6          1           0        1.301769   -1.334361    0.824780
      7          1           0        2.141350    0.061944    0.088443
      8          6           0        0.000000    0.186407    0.000000
      9          8           0        0.000000    1.395517    0.000000
     10          1           0        1.376386   -1.188198   -0.926615
 ---------------------------------------------------------------------

 SCF Done:  E(RHF) =  -192.029664295     A.U. after   11 cycles
 E2 =    -0.7294039655D+00 EUMP2 =    -0.19275906826053D+03
 E2(CBS)=      -0.801203 CBS-Int=       0.024223 OIii=       6.409328

 The electronic state is 1-A.
 Alpha  occ. eigenvalues --  -20.54610 -11.33268 -11.23507 -11.23505  -1.38901
 Alpha  occ. eigenvalues --   -1.04032  -0.96725  -0.74226  -0.64631  -0.63688
 Alpha  occ. eigenvalues --   -0.62289  -0.56362  -0.56028  -0.53774  -0.49112
 Alpha  occ. eigenvalues --   -0.41407
 Alpha virt. eigenvalues --    0.03572   0.05606   0.06073   0.07384   0.08772
 Alpha virt. eigenvalues --    0.09044   0.10994   0.13593   0.13643   0.16047
 Alpha virt. eigenvalues --    0.16054   0.16563   0.17711   0.17941   0.18087

 Mulliken atomic charges:
              1
     1  C   -0.203460
     2  H    0.098734
     3  H    0.067309
     4  H    0.063896
     5  C   -0.203461
     6  H    0.063896
     7  H    0.098734
     8  C    0.386886
     9  O   -0.439842
    10  H    0.067309
 Sum of Mulliken atomic charges =   0.00000

 Dipole moment (field-independent basis, Debye):
    X=              0.0000    Y=             -3.4160    Z=              0.0000  Tot=              3.4160
 Quadrupole moment (field-independent basis, Debye-Ang):
   XX=            -23.5105   YY=            -29.6845   ZZ=            -24.3807
   XY=              0.0000   XZ=             -0.0259   YZ=              0.0000

 1\1\GINC-NYX5524\Mixed\CBS-QB3\CBS-QB3\C3H6O1\HETANJIN\10-Mar-2014\0\\
 #p cbs-qb3 opt=calcfc freq\\C3H6O_2 using cbs-qb3 to cal. energy\\0,1\
 C,0,-1.2914420916,0.613982712,0.0054043065\H,0,-2.1410796191,-0.061407
 6915,0.0947671782\H,0,-1.3791186124,1.1887349084,-0.9225460146\H,0,-1.
 2993292946,1.3348982808,0.8286204843\C,0,1.2914405237,0.6139857471,-0.
 0054044042\H,0,1.2993260733,1.3349006836,-0.8286211546\H,0,2.141079646
 2,-0.061402727,-0.0947667014\C,0,0.0000001569,-0.1858686828,0.00000021
 78\O,0,0.0000015744,-1.3949781165,0.0000006237\H,0,1.3791156419,1.1887

 Normal termination of Gaussian 09 at Mon Mar 10 22:04:59 2014.
