 Gaussian 09, Revision A.01,
 Gaussian 09:  EM64L-G09RevA.01  8-May-2009

 ---------------------------
 #p opt freq ub3lyp/6-31g(d)
 ---------------------------

 ------------------------------------------------------
 RO2_3_2_opt_ub3631gd using cbs-qb3 to calculate energy
 ------------------------------------------------------
 Symbolic Z-matrix:
 Charge =  0 Multiplicity = 2

 SCF Done:  E(UB3LYP) =  -118.471160416     A.U. after   14 cycles
 SCF Done:  E(UB3LYP) =  -118.471363361     A.U. after   10 cycles
 SCF Done:  E(UB3LYP) =  -118.471366579     A.U. after    8 cycles
 SCF Done:  E(UB3LYP) =  -118.471367655     A.U. after    8 cycles
 SCF Done:  E(UB3LYP) =  -118.471368400     A.U. after    8 cycles
 SCF Done:  E(UB3LYP) =  -118.471371299     A.U. after   10 cycles
 SCF Done:  E(UB3LYP) =  -118.471371536     A.U. after    8 cycles
 Optimization completed.
    -- Stationary point found.
 Normal termination of Gaussian 09 at Wed Apr  1 00:06:06 2015.

 --------------------------------------------------------------------
 #P Geom=AllCheck Guess=TCheck SCRF=Check GenChk UB3LYP/6-31G(d) Freq
 --------------------------------------------------------------------

 RO2_3_2_opt_ub3631gd using cbs-qb3 to calculate energy
 ------------------------------------------------------
 Redundant internal coordinates taken from checkpoint file:
 C3H7_45_b3631gd.chk
 Charge =  0 Multiplicity = 2

                         Standard orientation:
 ---------------------------------------------------------------------
 Center     Atomic      Atomic             Coordinates (Angstroms)
 Number     Number       Type             X           Y           Z
 ---------------------------------------------------------------------
      1          6           0        1.228025   -0.244599   -0.040468
      2          1           0        1.301254   -0.764945   -1.001988
      3          1           0        1.283700   -1.000757    0.752048
      4          1           0        2.101404    0.409563    0.059652
      5          6           0       -0.080200    0.554070    0.055066
      6          1           0       -0.078374    1.118455    1.007391
      7          1           0       -0.104051    1.325099   -0.728721
      8          6           0       -1.304629   -0.293929   -0.033557
      9          1           0       -1.302278   -1.310629    0.350068
     10          1           0       -2.260838    0.129959   -0.324698
 ---------------------------------------------------------------------

 SCF Done:  E(UB3LYP) =  -118.471371536     A.U. after    1 cycles

 The electronic state is 2-A.
 Alpha  occ. eigenvalues --  -10.18535 -10.18367 -10.17350  -0.77841  -0.67109
 Alpha  occ. eigenvalues --   -0.57922  -0.45136  -0.43685  -0.40349  -0.35648
 Alpha  occ. eigenvalues --   -0.34927  -0.33954  -0.19553
 Alpha virt. eigenvalues --    0.10503   0.13971   0.14697   0.15593   0.17474
 Alpha virt. eigenvalues --    0.18734   0.20248   0.24450   0.28042   0.51331
 Alpha virt. eigenvalues --    0.52172   0.54190   0.57689   0.59544   0.61952

  Beta  occ. eigenvalues --  -10.18623 -10.17318 -10.16987  -0.76931  -0.65372
  Beta  occ. eigenvalues --   -0.56437  -0.44569  -0.43005  -0.39803  -0.34980
  Beta  occ. eigenvalues --   -0.34346  -0.33634
  Beta virt. eigenvalues --   -0.03466   0.10719   0.14879   0.15270   0.15908
  Beta virt. eigenvalues --    0.17595   0.18967   0.20734   0.24943   0.28681
  Beta virt. eigenvalues --    0.51670   0.52470   0.55893   0.59096   0.63289

 Mulliken atomic charges:
              1
     1  C   -0.440752
     2  H    0.149166
     3  H    0.143833
     4  H    0.141526
     5  C   -0.256416
     6  H    0.145047
     7  H    0.142549
     8  C   -0.303525
     9  H    0.139305
    10  H    0.139266
 Sum of Mulliken atomic charges =   0.00000

 Dipole moment (field-independent basis, Debye):
    X=              0.1243    Y=              0.1820    Z=              0.1210  Tot=              0.2514
 Quadrupole moment (field-independent basis, Debye-Ang):
   XX=            -20.8076   YY=            -20.3794   ZZ=            -21.1677
   XY=             -0.0521   XZ=              0.1072   YZ=             -0.4544

  Exact polarizability:  35.882   1.073  31.895   1.252  -1.204  26.437
 Approx polarizability:  41.720   1.734  41.531   1.843  -1.632  35.542

                     1                      2                      3
                     A                      A                      A
 Frequencies --   121.7531               252.1989               368.6367
 Red. masses --     1.0339                 1.1033                 1.8655
 Frc consts  --     0.0090                 0.0413                 0.1494
 IR Inten    --     0.2487                 0.0692                 4.1637

                     4                      5                      6
                     A                      A                      A
 Frequencies --   464.8618               761.1924               890.1136
 Red. masses --     1.3408                 1.1716                 2.0192
 Frc consts  --     0.1707                 0.4000                 0.9426
 IR Inten    --    41.5554                 1.2776                 0.0719

                     7                      8                      9
                     A                      A                      A
 Frequencies --   930.0672              1064.3147              1092.6768
 Red. masses --     1.2866                 1.4413                 2.2987
 Frc consts  --     0.6557                 0.9619                 1.6170
 IR Inten    --     1.6828                 0.9583                 0.1068

                    10                     11                     12
                     A                      A                      A
 Frequencies --  1186.8995              1284.1897              1378.5613
 Red. masses --     1.7962                 1.1893                 1.4565
 Frc consts  --     1.4909                 1.1556                 1.6308
 IR Inten    --     0.4707                 0.3255                 4.0271

                    13                     14                     15
                     A                      A                      A
 Frequencies --  1435.9134              1490.0593              1499.9626
 Red. masses --     1.2452                 1.1722                 1.0717
 Frc consts  --     1.5127                 1.5335                 1.4206
 IR Inten    --     0.9795                 0.7539                 0.7992

                    16                     17                     18
                     A                      A                      A
 Frequencies --  1527.8813              1535.5095              2937.6365
 Red. masses --     1.0413                 1.0582                 1.0735
 Frc consts  --     1.4322                 1.4700                 5.4584
 IR Inten    --     5.0080                 3.0817                39.4316

                    19                     20                     21
                     A                      A                      A
 Frequencies --  3033.7604              3046.8596              3111.7998
 Red. masses --     1.0841                 1.0353                 1.1020
 Frc consts  --     5.8788                 5.6629                 6.2873
 IR Inten    --    24.3197                29.7332                42.8401

                    22                     23                     24
                     A                      A                      A
 Frequencies --  3119.1777              3160.5910              3258.0873
 Red. masses --     1.1031                 1.0512                 1.1181
 Frc consts  --     6.3234                 6.1867                 6.9926
 IR Inten    --    34.7034                17.3404                20.5481

 - Thermochemistry -
 -------------------
 Temperature   298.150 Kelvin.  Pressure   1.00000 Atm.
 Atom     1 has atomic number  6 and mass  12.00000

 Molecular mass:    43.05478 amu.
 Principal axes and moments of inertia in atomic units:
                           1         2         3
     Eigenvalues --    55.08769 202.50368 233.08090
           X            0.99998  -0.00557   0.00145
           Y            0.00561   0.99937  -0.03504
           Z           -0.00125   0.03504   0.99939
 This molecule is an asymmetric top.
 Rotational symmetry number  1.
 Rotational temperatures (Kelvin)      1.57229     0.42771     0.37160
 Rotational constants (GHZ):          32.76125     8.91214     7.74298
 Zero-point vibrational energy     232988.9 (Joules/Mol)
                                   55.68569 (Kcal/Mol)
 Warning -- explicit consideration of   4 degrees of freedom as
           vibrations may cause significant error
 Vibrational temperatures:    175.18   362.86   530.39   668.83  1095.18
          (Kelvin)           1280.67  1338.16  1531.31  1572.12  1707.68
                             1847.66  1983.44  2065.96  2143.86  2158.11
                             2198.28  2209.25  4226.60  4364.90  4383.75
                             4477.18  4487.80  4547.38  4687.66

 Zero-point correction=                           0.088741 (Hartree/Particle)
 Thermal correction to Energy=                    0.093655
 Thermal correction to Enthalpy=                  0.094599
 Thermal correction to Gibbs Free Energy=         0.062058
 Sum of electronic and zero-point Energies=           -118.382631
 Sum of electronic and thermal Energies=              -118.377717
 Sum of electronic and thermal Enthalpies=            -118.376772
 Sum of electronic and thermal Free Energies=         -118.409313

                     E (Thermal)             CV                S
                      KCal/Mol        Cal/Mol-Kelvin    Cal/Mol-Kelvin
 Total                   58.769             15.670             68.487
 Electronic               0.000              0.000              1.377
 Translational            0.889              2.981             37.206
 Rotational               0.889              2.981             22.479
 Vibrational             56.992              9.708              7.424
 Vibration     1          0.609              1.931              3.072
 Vibration     2          0.664              1.759              1.715
 Vibration     3          0.741              1.537              1.085
 Vibration     4          0.822              1.328              0.752

 Optimization completed.
    -- Stationary point found.
 Normal termination of Gaussian 09 at Wed Apr  1 00:06:16 2015.
