 Gaussian 09, Revision B.01,
 Gaussian 09:  EM64L-G09RevB.01 12-Aug-2010

 ---------------------------
 # CBS-QB3 geom=connectivity
 ---------------------------

 -------------------
 Title Card Required
 -------------------
 Symbolic Z-matrix:
 Charge =  0 Multiplicity = 2

 SCF Done:  E(UB3LYP) =  -424.994098208     A.U. after   19 cycles
 Optimization completed.
    -- Stationary point found.
 Normal termination of Gaussian 09 at Fri Feb  6 06:18:20 2015.

 ---------------------------------------------------------
 #N Geom=AllCheck Guess=TCheck SCRF=Check B3LYP/CBSB7 Freq
 ---------------------------------------------------------

 Title Card Required
 -------------------
 Redundant internal coordinates taken from checkpoint file:
 /scratch/Gau-26730.chk
 Charge =  0 Multiplicity = 2

 SCF Done:  E(UB3LYP) =  -424.994098208     A.U. after    1 cycles

  Exact polarizability: 112.932   3.990  84.720   4.106  -2.902  70.857
 Approx polarizability: 137.728  11.387 120.721   7.821  -5.728 110.091

                     1                      2                      3
                     A                      A                      A
 Frequencies --    32.1580                50.1708                65.8238
 Red. masses --     3.2207                 5.1098                 4.1012
 Frc consts  --     0.0020                 0.0076                 0.0105
 IR Inten    --     0.2657                 1.2567                 0.3221

                     4                      5                      6
                     A                      A                      A
 Frequencies --    88.1216               126.9610               156.2815
 Red. masses --     1.8362                 1.2809                 1.8994
 Frc consts  --     0.0084                 0.0122                 0.0273
 IR Inten    --     0.1460                 0.2770                 0.6072

                     7                      8                      9
                     A                      A                      A
 Frequencies --   218.8019               233.7621               266.5687
 Red. masses --     1.2838                 4.0029                 2.6579
 Frc consts  --     0.0362                 0.1289                 0.1113
 IR Inten    --     0.3212                 1.3803                 0.6652

                    10                     11                     12
                     A                      A                      A
 Frequencies --   337.3123               375.9347               414.1032
 Red. masses --     2.5194                 3.3601                 2.7940
 Frc consts  --     0.1689                 0.2798                 0.2823
 IR Inten    --     1.2800                 0.5207                 1.5812

                    13                     14                     15
                     A                      A                      A
 Frequencies --   476.6868               528.6589               592.4467
 Red. masses --     3.2252                 3.0498                 2.1161
 Frc consts  --     0.4318                 0.5022                 0.4376
 IR Inten    --     3.1800                 0.6135                12.5655

                    16                     17                     18
                     A                      A                      A
 Frequencies --   731.5319               756.1754               812.3012
 Red. masses --     1.3033                 1.7316                 1.7584
 Frc consts  --     0.4109                 0.5834                 0.6836
 IR Inten    --    44.0417                 0.0529                 6.9906

                    19                     20                     21
                     A                      A                      A
 Frequencies --   892.4223               921.1462               954.3258
 Red. masses --     3.0224                 1.6799                 2.1178
 Frc consts  --     1.4182                 0.8398                 1.1364
 IR Inten    --     7.6675                 3.3557                17.9112

                    22                     23                     24
                     A                      A                      A
 Frequencies --   990.6212              1018.7599              1036.3199
 Red. masses --     2.1692                 1.1933                 2.4185
 Frc consts  --     1.2542                 0.7297                 1.5303
 IR Inten    --     5.0645                 1.1589                 4.7539

                    25                     26                     27
                     A                      A                      A
 Frequencies --  1060.8983              1064.4949              1111.7948
 Red. masses --     1.7055                 1.5474                 2.0121
 Frc consts  --     1.1309                 1.0331                 1.4654
 IR Inten    --     0.9747                 1.1281                10.6521

                    28                     29                     30
                     A                      A                      A
 Frequencies --  1129.1497              1142.9931              1194.0735
 Red. masses --     1.9123                 2.3734                 7.5520
 Frc consts  --     1.4365                 1.8269                 6.3442
 IR Inten    --     2.6860                 1.9998                 8.2768

                    31                     32                     33
                     A                      A                      A
 Frequencies --  1241.5445              1278.1635              1297.8900
 Red. masses --     1.3840                 1.2424                 1.1692
 Frc consts  --     1.2569                 1.1958                 1.1604
 IR Inten    --     5.2298                 0.5176                 0.6262

                    34                     35                     36
                     A                      A                      A
 Frequencies --  1305.7753              1354.7242              1358.4035
 Red. masses --     1.2083                 1.3373                 1.2431
 Frc consts  --     1.2138                 1.4461                 1.3515
 IR Inten    --     0.6825                 2.6830                12.7434

                    37                     38                     39
                     A                      A                      A
 Frequencies --  1389.8105              1410.4507              1419.1644
 Red. masses --     1.4799                 1.2208                 1.2314
 Frc consts  --     1.6843                 1.4309                 1.4613
 IR Inten    --     0.4336                 3.4486                 3.0845

                    40                     41                     42
                     A                      A                      A
 Frequencies --  1438.4680              1465.0971              1479.3495
 Red. masses --     1.4054                 1.1111                 1.0799
 Frc consts  --     1.7134                 1.4052                 1.3924
 IR Inten    --     9.9414                 1.4058                 2.9931

                    43                     44                     45
                     A                      A                      A
 Frequencies --  1484.9128              1493.9560              1498.9951
 Red. masses --     1.0448                 1.0712                 1.0413
 Frc consts  --     1.3573                 1.4087                 1.3786
 IR Inten    --     7.9188                 7.9446                 8.5085

                    46                     47                     48
                     A                      A                      A
 Frequencies --  1506.8781              1728.9731              3009.8431
 Red. masses --     1.0537                 6.2373                 1.0680
 Frc consts  --     1.4096                10.9856                 5.7003
 IR Inten    --     7.9723                 3.0199                14.1557

                    49                     50                     51
                     A                      A                      A
 Frequencies --  3017.2552              3021.1954              3033.9058
 Red. masses --     1.0399                 1.0606                 1.0368
 Frc consts  --     5.5778                 5.7035                 5.6226
 IR Inten    --    24.7090                26.9379                24.0416

                    52                     53                     54
                     A                      A                      A
 Frequencies --  3051.7981              3056.6090              3078.5473
 Red. masses --     1.1002                 1.0992                 1.0870
 Frc consts  --     6.0372                 6.0506                 6.0698
 IR Inten    --     6.8570                21.3630                 4.0459

                    55                     56                     57
                     A                      A                      A
 Frequencies --  3087.8617              3095.5078              3105.4511
 Red. masses --     1.0932                 1.1010                 1.0936
 Frc consts  --     6.1416                 6.2158                 6.2139
 IR Inten    --    12.4318                44.8347                10.0013

                    58                     59                     60
                     A                      A                      A
 Frequencies --  3110.0679              3124.8712              3152.2223
 Red. masses --     1.1013                 1.0866                 1.0929
 Frc consts  --     6.2763                 6.2518                 6.3982
 IR Inten    --    27.4734                23.5043                25.2365

 - Thermochemistry -
 -------------------
 Temperature   298.150 Kelvin.  Pressure   1.00000 Atm.
 Atom     1 has atomic number  6 and mass  12.00000

 Molecular mass:   129.09155 amu.
 Principal axes and moments of inertia in atomic units:
                           1         2         3
     Eigenvalues --   648.709462327.958302745.89703
           X            0.99984  -0.01775   0.00230
           Y            0.01773   0.99980   0.00874
           Z           -0.00245  -0.00870   0.99996
 This molecule is an asymmetric top.
 Rotational symmetry number  1.
 Warning -- assumption of classical behavior for rotation
           may cause significant error
 Rotational temperatures (Kelvin)      0.13352     0.03721     0.03154
 Rotational constants (GHZ):           2.78205     0.77525     0.65725
 Zero-point vibrational energy     495723.5 (Joules/Mol)
                                  118.48075 (Kcal/Mol)
 Warning -- explicit consideration of  15 degrees of freedom as
           vibrations may cause significant error
 Vibrational temperatures:     46.27    72.18    94.71   126.79   182.67
          (Kelvin)            224.85   314.81   336.33   383.53   485.32
                              540.89   595.80   685.85   760.62   852.40
                             1052.51  1087.97  1168.72  1284.00  1325.32
                             1373.06  1425.28  1465.77  1491.03  1526.39
                             1531.57  1599.62  1624.59  1644.51  1718.00
                             1786.30  1838.99  1867.37  1878.72  1949.14
                             1954.44  1999.62  2029.32  2041.86  2069.63
                             2107.95  2128.45  2136.46  2149.47  2156.72
                             2168.06  2487.60  4330.49  4341.15  4346.82
                             4365.11  4390.85  4397.77  4429.34  4442.74
                             4453.74  4468.05  4474.69  4495.99  4535.34

 Zero-point correction=                           0.188811 (Hartree/Particle)
 Thermal correction to Energy=                    0.200138
 Thermal correction to Enthalpy=                  0.201082
 Thermal correction to Gibbs Free Energy=         0.149694
 Sum of electronic and zero-point Energies=           -424.805287
 Sum of electronic and thermal Energies=              -424.793960
 Sum of electronic and thermal Enthalpies=            -424.793016
 Sum of electronic and thermal Free Energies=         -424.844404

                     E (Thermal)             CV                S
                      KCal/Mol        Cal/Mol-Kelvin    Cal/Mol-Kelvin
 Total                  125.589             39.121            108.156
 Electronic               0.000              0.000              1.377
 Translational            0.889              2.981             40.479
 Rotational               0.889              2.981             29.807
 Vibrational            123.811             33.160             36.493
 Vibration     1          0.594              1.983              5.692
 Vibration     2          0.595              1.978              4.811
 Vibration     3          0.597              1.971              4.275
 Vibration     4          0.601              1.958              3.701
 Vibration     5          0.611              1.926              2.992
 Vibration     6          0.620              1.896              2.594
 Vibration     7          0.647              1.812              1.969
 Vibration     8          0.654              1.789              1.850
 Vibration     9          0.672              1.734              1.618
 Vibration    10          0.718              1.601              1.225
 Vibration    11          0.747              1.521              1.055
 Vibration    12          0.778              1.440              0.912
 Vibration    13          0.833              1.302              0.719
 Vibration    14          0.884              1.187              0.590
 Vibration    15          0.950              1.048              0.463

 Optimization completed.
    -- Stationary point found.
 Normal termination of Gaussian 09 at Fri Feb  6 06:22:34 2015.

 -----------------------------------------------------------
 #N Geom=AllCheck Guess=TCheck SCRF=Check CCSD(T)/6-31+G(d')
 -----------------------------------------------------------

 Title Card Required
 -------------------
 Redundant internal coordinates taken from checkpoint file:
 /scratch/Gau-26730.chk
 Charge =  0 Multiplicity = 2

 SCF Done:  E(UHF) =  -422.230740018     A.U. after   29 cycles
 E2 =    -0.1273060852D+01 EUMP2 =    -0.42350380086999D+03
 CCSD(T)= -0.42364513517D+03
 P4SDQ=-423.5940459\CCSD=-423.5988197\CCSD(T)=-423.6451352\S2=0.762813\
 Normal termination of Gaussian 09 at Fri Feb  6 13:57:53 2015.

 -----------------------------------------------------
 #N Geom=AllCheck Guess=TCheck SCRF=Check MP4SDQ/CBSB4
 -----------------------------------------------------

 Title Card Required
 -------------------
 Redundant internal coordinates taken from checkpoint file:
 /scratch/Gau-26730.chk
 Charge =  0 Multiplicity = 2

 SCF Done:  E(UHF) =  -422.248371802     A.U. after   25 cycles
 E2 =    -0.1357125543D+01 EUMP2 =    -0.42360549734536D+03
 Normal termination of Gaussian 09 at Fri Feb  6 14:12:31 2015.

 ----------------------------------------------------------------------
 #N Geom=AllCheck Guess=TCheck SCRF=Check MP2/CBSB3 CBSExtrap=(NMin=10,
 MinPop)
 ----------------------------------------------------------------------

 Title Card Required
 -------------------
 Redundant internal coordinates taken from checkpoint file:
 /scratch/Gau-26730.chk
 Charge =  0 Multiplicity = 2

                         Standard orientation:
 ---------------------------------------------------------------------
 Center     Atomic      Atomic             Coordinates (Angstroms)
 Number     Number       Type             X           Y           Z
 ---------------------------------------------------------------------
      1          6           0       -3.572082   -0.851437   -0.444674
      2          1           0       -3.883762   -0.915566   -1.492984
      3          1           0       -4.481927   -0.954534    0.157144
      4          1           0       -2.934701   -1.710911   -0.232001
      5          6           0       -2.904330    0.465517   -0.171013
      6          1           0       -3.512816    1.339465   -0.394876
      7          6           0       -1.680229    0.687703    0.311564
      8          1           0       -1.368380    1.719672    0.448668
      9          6           0       -0.650220   -0.338063    0.699686
     10          1           0       -0.457693   -0.280029    1.778977
     11          1           0       -1.000110   -1.353153    0.499501
     12          6           0        0.689533   -0.151679   -0.019427
     13          1           0        0.551517   -0.026360   -1.095309
     14          6           0        1.710580   -1.245586    0.288408
     15          1           0        1.249968   -2.204122    0.023533
     16          1           0        1.876949   -1.268569    1.371132
     17          6           0        3.042774   -1.088543   -0.448695
     18          1           0        3.529280   -0.144775   -0.195561
     19          1           0        3.724375   -1.900641   -0.183770
     20          1           0        2.901185   -1.108319   -1.532821
     21          8           0        1.231342    1.136086    0.454687
     22          8           0        1.767404    1.856460   -0.510527
 ---------------------------------------------------------------------

 SCF Done:  E(UHF) =  -422.368427020     A.U. after   19 cycles
 E2 =    -0.1605794340D+01 EUMP2 =    -0.42397422135969D+03
 E2(CBS)=      -1.763478 CBS-Int=       0.052537 OIii=      13.752211

 The electronic state is 2-A.
 Alpha  occ. eigenvalues --  -20.66724 -20.64967 -11.29587 -11.23695 -11.23324
 Alpha  occ. eigenvalues --  -11.23174 -11.22646 -11.22483 -11.21807  -1.55984
 Alpha  occ. eigenvalues --   -1.21249  -1.09039  -1.05670  -1.00181  -0.93160
 Alpha  occ. eigenvalues --   -0.87301  -0.81734  -0.75133  -0.73164  -0.70606
 Alpha  occ. eigenvalues --   -0.66878  -0.64943  -0.61323  -0.60229  -0.58858
 Alpha  occ. eigenvalues --   -0.57020  -0.55593  -0.53893  -0.53522  -0.52044
 Alpha  occ. eigenvalues --   -0.50746  -0.49028  -0.47983  -0.47421  -0.45126
 Alpha  occ. eigenvalues --   -0.35178
 Alpha virt. eigenvalues --    0.03777   0.04689   0.05395   0.05558   0.06731
 Alpha virt. eigenvalues --    0.06991   0.07217   0.08220   0.09002   0.09280
 Alpha virt. eigenvalues --    0.10319   0.10780   0.11468   0.13404   0.13937

  Beta  occ. eigenvalues --  -20.63976 -20.62692 -11.29650 -11.23689 -11.23307
  Beta  occ. eigenvalues --  -11.23158 -11.22663 -11.22485 -11.21810  -1.49674
  Beta  occ. eigenvalues --   -1.14593  -1.07959  -1.03883  -0.99673  -0.92844
  Beta  occ. eigenvalues --   -0.87142  -0.81206  -0.73245  -0.69171  -0.66500
  Beta  occ. eigenvalues --   -0.64339  -0.62786  -0.60062  -0.58775  -0.57016
  Beta  occ. eigenvalues --   -0.55411  -0.54139  -0.53454  -0.52385  -0.50493
  Beta  occ. eigenvalues --   -0.48965  -0.48670  -0.46084  -0.44413  -0.35191
  Beta virt. eigenvalues --    0.03778   0.04688   0.05399   0.05561   0.06638
  Beta virt. eigenvalues --    0.06983   0.07216   0.08229   0.08829   0.09180
  Beta virt. eigenvalues --    0.10292   0.10740   0.11412   0.12174   0.13468

 Mulliken atomic charges:
              1
     1  C   -0.360651
     2  H    0.067738
     3  H    0.055163
     4  H    0.061421
     5  C   -0.305891
     6  H    0.133518
     7  C    0.291330
     8  H    0.200106
     9  C    0.075654
    10  H    0.108991
    11  H    0.032385
    12  C   -0.152789
    13  H    0.129822
    14  C   -0.216077
    15  H    0.034882
    16  H    0.092586
    17  C   -0.341832
    18  H    0.070566
    19  H    0.072461
    20  H    0.063672
    21  O   -0.015616
    22  O   -0.097441
 Sum of Mulliken atomic charges =   0.00000

 Dipole moment (field-independent basis, Debye):
    X=             -1.1554    Y=             -2.6056    Z=             -0.2394  Tot=              2.8603
 Quadrupole moment (field-independent basis, Debye-Ang):
   XX=            -55.4784   YY=            -58.6169   ZZ=            -57.6690
   XY=             -3.4960   XZ=              1.1718   YZ=             -0.2638

 Normal termination of Gaussian 09 at Fri Feb  6 14:36:45 2015.
