 Gaussian 09, Revision C.01,
 Gaussian 09:  EM64L-G09RevC.01 23-Sep-2011

 --------------------------
 #p cbs-qb3 opt=calcfc freq
 --------------------------

 (Enter /usr/caen/gaussian-09revc/g09/l101.exe)
 --------------------------------------
 C6H12_1_4 using cbs-qb3 to cal. energy
 --------------------------------------
 Charge =  0 Multiplicity = 1

 SCF Done:  E(RB3LYP) =  -235.917047052     A.U. after   13 cycles
 SCF Done:  E(RB3LYP) =  -235.917050883     A.U. after    8 cycles
 Optimization completed.
    -- Stationary point found.
 Normal termination of Gaussian 09 at Wed Apr  2 18:23:06 2014.

 ---------------------------------------------------------
 #P Geom=AllCheck Guess=TCheck SCRF=Check B3LYP/CBSB7 Freq
 ---------------------------------------------------------

 Structure from the checkpoint file:  C6H12_1_4.chk
 --------------------------------------
 C6H12_1_4 using cbs-qb3 to cal. energy
 --------------------------------------
 Charge =  0 Multiplicity = 1

 SCF Done:  E(RB3LYP) =  -235.917050883     A.U. after    1 cycles

  Exact polarizability:  85.856   5.874  61.599   3.788   1.804  63.018
 Approx polarizability: 107.810   9.817  84.842   9.422   4.899  95.819

                     1                      2                      3
                     A                      A                      A
 Frequencies --    82.4933                97.2049               214.8359
 Red. masses --     2.0980                 2.6633                 1.3513
 Frc consts  --     0.0084                 0.0148                 0.0367
 IR Inten    --     0.0130                 0.0705                 0.0389

                     4                      5                      6
                     A                      A                      A
 Frequencies --   227.6896               252.2864               341.7622
 Red. masses --     1.2564                 1.1859                 2.3703
 Frc consts  --     0.0384                 0.0445                 0.1631
 IR Inten    --     0.0219                 0.0824                 0.0199

                     7                      8                      9
                     A                      A                      A
 Frequencies --   387.0710               428.3004               448.8928
 Red. masses --     2.0037                 2.0027                 2.1861
 Frc consts  --     0.1769                 0.2164                 0.2595
 IR Inten    --     0.9480                 0.4029                 0.9570

                    10                     11                     12
                     A                      A                      A
 Frequencies --   634.0869               829.9779               884.7007
 Red. masses --     1.5175                 2.3960                 1.3979
 Frc consts  --     0.3595                 0.9725                 0.6447
 IR Inten    --     8.9450                 2.8672                 0.2073

                    13                     14                     15
                     A                      A                      A
 Frequencies --   921.3754               936.2642               945.2128
 Red. masses --     1.7850                 1.2843                 1.3785
 Frc consts  --     0.8928                 0.6633                 0.7256
 IR Inten    --     3.8130                 6.9225                35.6774

                    16                     17                     18
                     A                      A                      A
 Frequencies --   965.6524               975.6608              1031.9413
 Red. masses --     1.6215                 1.6495                 1.1103
 Frc consts  --     0.8908                 0.9251                 0.6966
 IR Inten    --     0.6562                 0.9002                11.1923

                    19                     20                     21
                     A                      A                      A
 Frequencies --  1057.6891              1131.7264              1188.5636
 Red. masses --     1.4256                 2.2001                 1.7768
 Frc consts  --     0.9397                 1.6603                 1.4789
 IR Inten    --     7.7165                 1.3032                 5.9830

                    22                     23                     24
                     A                      A                      A
 Frequencies --  1196.6543              1262.6235              1302.6729
 Red. masses --     2.1193                 1.3025                 1.2486
 Frc consts  --     1.7880                 1.2234                 1.2483
 IR Inten    --     0.1897                 1.7323                 1.5097

                    25                     26                     27
                     A                      A                      A
 Frequencies --  1329.4167              1367.8172              1371.0166
 Red. masses --     1.2538                 1.3900                 1.3972
 Frc consts  --     1.3056                 1.5322                 1.5474
 IR Inten    --     0.9817                 1.4121                 2.9410

                    28                     29                     30
                     A                      A                      A
 Frequencies --  1402.6753              1421.4322              1452.7053
 Red. masses --     1.2611                 1.2307                 1.1740
 Frc consts  --     1.4619                 1.4651                 1.4597
 IR Inten    --     7.1063                 6.0273                 1.1218

                    31                     32                     33
                     A                      A                      A
 Frequencies --  1478.5293              1490.3983              1495.8457
 Red. masses --     1.1068                 1.0419                 1.0594
 Frc consts  --     1.4256                 1.3635                 1.3966
 IR Inten    --     3.7946                 0.8013                 3.9228

                    34                     35                     36
                     A                      A                      A
 Frequencies --  1504.9968              1511.2804              1706.7214
 Red. masses --     1.0487                 1.0508                 4.6250
 Frc consts  --     1.3994                 1.4141                 7.9376
 IR Inten    --     7.3664                11.0807                11.4030

                    37                     38                     39
                     A                      A                      A
 Frequencies --  2990.0933              2994.6020              3013.2297
 Red. masses --     1.0823                 1.0611                 1.0361
 Frc consts  --     5.7014                 5.6064                 5.5428
 IR Inten    --    12.5063                30.1918                32.7423

                    40                     41                     42
                     A                      A                      A
 Frequencies --  3019.0663              3036.7750              3072.3213
 Red. masses --     1.0390                 1.0984                 1.1002
 Frc consts  --     5.5796                 5.9683                 6.1187
 IR Inten    --    24.4997                24.8921                10.3135

                    43                     44                     45
                     A                      A                      A
 Frequencies --  3078.9359              3083.9035              3097.1573
 Red. masses --     1.0999                 1.1014                 1.1005
 Frc consts  --     6.1434                 6.1716                 6.2198
 IR Inten    --    64.5604                50.1846                30.4173

                    46                     47                     48
                     A                      A                      A
 Frequencies --  3108.2889              3125.1873              3206.4046
 Red. masses --     1.0824                 1.0667                 1.1151
 Frc consts  --     6.1612                 6.1381                 6.7547
 IR Inten    --    30.4425                 6.1421                21.0874

 - Thermochemistry -
 -------------------
 Temperature   298.150 Kelvin.  Pressure   1.00000 Atm.
 Atom     1 has atomic number  6 and mass  12.00000

 Molecular mass:    84.09390 amu.
 Principal axes and moments of inertia in atomic units:
                           1         2         3
     Eigenvalues --   265.84418 927.836421079.09184
           X            0.99996   0.00914  -0.00091
           Y           -0.00914   0.99996   0.00142
           Z            0.00093  -0.00141   1.00000
 This molecule is an asymmetric top.
 Rotational symmetry number  1.
 Rotational temperatures (Kelvin)      0.32581     0.09335     0.08027
 Rotational constants (GHZ):           6.78872     1.94511     1.67246
 Zero-point vibrational energy     431278.5 (Joules/Mol)
                                  103.07804 (Kcal/Mol)
 Warning -- explicit consideration of   9 degrees of freedom as
           vibrations may cause significant error
 Vibrational temperatures:    118.69   139.86   309.10   327.59   362.98
          (Kelvin)            491.72   556.91   616.23   645.86   912.31
                             1194.15  1272.89  1325.65  1347.07  1359.95
                             1389.36  1403.76  1484.73  1521.78  1628.30
                             1710.08  1721.72  1816.63  1874.25  1912.73
                             1967.98  1972.58  2018.13  2045.12  2090.12
                             2127.27  2144.35  2152.19  2165.35  2174.39
                             2455.59  4302.07  4308.56  4335.36  4343.76
                             4369.24  4420.38  4429.90  4437.04  4456.11
                             4472.13  4496.44  4613.30

 Zero-point correction=                           0.164265 (Hartree/Particle)
 Thermal correction to Energy=                    0.172098
 Thermal correction to Enthalpy=                  0.173042
 Thermal correction to Gibbs Free Energy=         0.132679
 Sum of electronic and zero-point Energies=           -235.752786
 Sum of electronic and thermal Energies=              -235.744953
 Sum of electronic and thermal Enthalpies=            -235.744009
 Sum of electronic and thermal Free Energies=         -235.784372

                     E (Thermal)             CV                S
                      KCal/Mol        Cal/Mol-Kelvin    Cal/Mol-Kelvin
 Total                  107.993             28.110             84.950
 Electronic               0.000              0.000              0.000
 Translational            0.889              2.981             39.202
 Rotational               0.889              2.981             27.078
 Vibrational            106.215             22.148             18.670
 Vibration     1          0.600              1.961              3.831
 Vibration     2          0.603              1.951              3.510
 Vibration     3          0.645              1.818              2.002
 Vibration     4          0.651              1.799              1.897
 Vibration     5          0.664              1.759              1.715
 Vibration     6          0.721              1.592              1.204
 Vibration     7          0.755              1.498              1.011
 Vibration     8          0.790              1.409              0.864
 Vibration     9          0.808              1.363              0.799

 Optimization completed.
    -- Stationary point found.
 Normal termination of Gaussian 09 at Wed Apr  2 18:24:21 2014.

 -----------------------------------------------------------
 #P Geom=AllCheck Guess=TCheck SCRF=Check CCSD(T)/6-31+G(d')
 -----------------------------------------------------------

 Structure from the checkpoint file:  C6H12_1_4.chk
 --------------------------------------
 C6H12_1_4 using cbs-qb3 to cal. energy
 --------------------------------------
 Charge =  0 Multiplicity = 1

 SCF Done:  E(RHF) =  -234.177110288     A.U. after   12 cycles
 E2 =    -0.7967538715D+00 EUMP2 =    -0.23497386415936D+03
 CCSD(T)
 CCSD(T)= -0.23507492986D+03
 SD=-235.0463235\CCSD(T)=-235.0749299\RMSD=7.428e-09\PG=C01 [X(C6H12)]\
 Normal termination of Gaussian 09 at Wed Apr  2 18:32:45 2014.

 -----------------------------------------------------
 #P Geom=AllCheck Guess=TCheck SCRF=Check MP4SDQ/CBSB4
 -----------------------------------------------------

 Structure from the checkpoint file:  C6H12_1_4.chk
 --------------------------------------
 C6H12_1_4 using cbs-qb3 to cal. energy
 --------------------------------------
 Charge =  0 Multiplicity = 1

 SCF Done:  E(RHF) =  -234.193516887     A.U. after   11 cycles
 E2 =    -0.8750081053D+00 EUMP2 =    -0.23506852499220D+03
 Normal termination of Gaussian 09 at Wed Apr  2 18:33:35 2014.

 ----------------------------------------------------------------------
 #P Geom=AllCheck Guess=TCheck SCRF=Check MP2/CBSB3 CBSExtrap=(NMin=10,
 MinPop)
 ----------------------------------------------------------------------

 Structure from the checkpoint file:  C6H12_1_4.chk
 --------------------------------------
 C6H12_1_4 using cbs-qb3 to cal. energy
 --------------------------------------
 Charge =  0 Multiplicity = 1

                         Standard orientation:
 ---------------------------------------------------------------------
 Center     Atomic      Atomic             Coordinates (Angstroms)
 Number     Number       Type             X           Y           Z
 ---------------------------------------------------------------------
      1          6           0        1.599830   -0.330845   -0.414428
      2          1           0        1.667775   -0.406762   -1.499670
      3          6           0        0.294207   -0.769376    0.186021
      4          1           0        0.338970   -0.679991    1.278209
      5          1           0        0.147342   -1.835123   -0.035259
      6          6           0       -0.937455    0.003024   -0.341886
      7          1           0       -0.922462   -0.064238   -1.438308
      8          6           0       -2.235221   -0.650149    0.150849
      9          1           0       -2.294080   -0.624351    1.244471
     10          1           0       -3.113282   -0.127871   -0.239785
     11          1           0       -2.300569   -1.696570   -0.161707
     12          6           0       -0.886738    1.487050    0.042238
     13          1           0       -1.737500    2.030482   -0.378935
     14          1           0       -0.921828    1.606346    1.130922
     15          1           0        0.029785    1.963239   -0.313501
     16          6           0        2.649901    0.126264    0.261841
     17          1           0        2.631674    0.221167    1.343658
     18          1           0        3.567029    0.417866   -0.237903
 ---------------------------------------------------------------------

 SCF Done:  E(RHF) =  -234.252216581     A.U. after   11 cycles
 E2 =    -0.1016519807D+01 EUMP2 =    -0.23526873638787D+03
 E2(CBS)=      -1.113194 CBS-Int=       0.034964 OIii=       9.132716

 The electronic state is 1-A.
 Alpha  occ. eigenvalues --  -11.22988 -11.22733 -11.22158 -11.21640 -11.21038
 Alpha  occ. eigenvalues --  -11.20615  -1.09854  -1.03581  -0.92715  -0.92213
 Alpha  occ. eigenvalues --   -0.77893  -0.75330  -0.63678  -0.62731  -0.59505
 Alpha  occ. eigenvalues --   -0.58208  -0.55629  -0.53292  -0.51245  -0.49398
 Alpha  occ. eigenvalues --   -0.47186  -0.46100  -0.45893  -0.35789
 Alpha virt. eigenvalues --    0.04161   0.05233   0.05495   0.05856   0.07054
 Alpha virt. eigenvalues --    0.07634   0.07931   0.08509   0.09100   0.10018
 Alpha virt. eigenvalues --    0.10992   0.11294   0.12607   0.15513   0.15944

 Mulliken atomic charges:
              1
     1  C    0.090050
     2  H    0.137557
     3  C   -0.062841
     4  H    0.069306
     5  H    0.032212
     6  C    0.537279
     7  H    0.026464
     8  C   -0.367351
     9  H    0.060230
    10  H    0.068358
    11  H    0.060655
    12  C   -0.493968
    13  H    0.065545
    14  H    0.057476
    15  H    0.085634
    16  C   -0.551187
    17  H    0.083350
    18  H    0.101231
 Sum of Mulliken atomic charges =   0.00000

 Dipole moment (field-independent basis, Debye):
    X=             -0.3666    Y=             -0.0868    Z=             -0.1477  Tot=              0.4047
 Quadrupole moment (field-independent basis, Debye-Ang):
   XX=            -41.4236   YY=            -42.3940   ZZ=            -39.1979
   XY=              0.9350   XZ=              0.1630   YZ=              0.4025

 Normal termination of Gaussian 09 at Wed Apr  2 18:36:15 2014.
