 Gaussian 09, Revision C.01,

 -------------------------------------------------
 #p B3LYP/6-311++G(d,p) guess=mix stable=(opt,xqc)
 -------------------------------------------------

 (Enter /usr/caen/gaussian-09revc/g09/l101.exe)
 ---------------------------------------
 C9H18_3_26 using cbs-qb3 to cal. energy
 ---------------------------------------
 Charge =  0 Multiplicity = 1

 SCF Done:  E(RB3LYP) =  -353.896864099     A.U. after   13 cycles
 Normal termination of Gaussian 09 at Sun Feb  9 04:55:17 2014.
 Gaussian 09:  EM64L-G09RevC.01 23-Sep-2011

 ------------------------------------------------
 #p cbs-qb3 opt=calcfc freq geom=check guess=read
 ------------------------------------------------

 ---------------------
 optimization and freq
 ---------------------
 Structure from the checkpoint file:  C9H18_3_26.chk
 Charge =  0 Multiplicity = 1

 SCF Done:  E(RB3LYP) =  -353.895110680     A.U. after    8 cycles
 SCF Done:  E(RB3LYP) =  -353.895113652     A.U. after    8 cycles
 Optimization completed.
    -- Stationary point found.
 Normal termination of Gaussian 09 at Sun Feb  9 05:00:50 2014.

 ---------------------------------------------------------
 #P Geom=AllCheck Guess=TCheck SCRF=Check B3LYP/CBSB7 Freq
 ---------------------------------------------------------

 Structure from the checkpoint file:  C9H18_3_26.chk
 ---------------------
 optimization and freq
 ---------------------
 Charge =  0 Multiplicity = 1

 SCF Done:  E(RB3LYP) =  -353.895113652     A.U. after    1 cycles

  Exact polarizability: 137.830   4.343  95.785   4.197   1.010  91.109
 Approx polarizability: 162.734   7.494 131.130  10.622   3.309 144.018

                     1                      2                      3
                     A                      A                      A
 Frequencies --    35.4340                58.2360                85.1789
 Red. masses --     2.6147                 2.7663                 2.8542
 Frc consts  --     0.0019                 0.0055                 0.0122
 IR Inten    --     0.0216                 0.0672                 0.1537

                     4                      5                      6
                     A                      A                      A
 Frequencies --   112.6065               193.5911               222.6442
 Red. masses --     2.7604                 1.6865                 1.0328
 Frc consts  --     0.0206                 0.0372                 0.0302
 IR Inten    --     0.0794                 0.2972                 0.0324

                     7                      8                      9
                     A                      A                      A
 Frequencies --   224.9071               247.0137               253.7969
 Red. masses --     1.0802                 1.2373                 1.2875
 Frc consts  --     0.0322                 0.0445                 0.0489
 IR Inten    --     0.0063                 0.2907                 0.2066

                    10                     11                     12
                     A                      A                      A
 Frequencies --   271.6692               287.0518               363.5224
 Red. masses --     2.3358                 1.8315                 2.1466
 Frc consts  --     0.1016                 0.0889                 0.1671
 IR Inten    --     0.0227                 0.3927                 0.0305

                    13                     14                     15
                     A                      A                      A
 Frequencies --   381.6978               428.9550               452.7244
 Red. masses --     2.2332                 2.0611                 2.2701
 Frc consts  --     0.1917                 0.2234                 0.2741
 IR Inten    --     0.5891                 0.1738                 1.0972

                    16                     17                     18
                     A                      A                      A
 Frequencies --   469.2711               543.4521               792.8953
 Red. masses --     2.4869                 2.9725                 2.2460
 Frc consts  --     0.3227                 0.5172                 0.8319
 IR Inten    --     0.7223                 0.3495                 0.8326

                    19                     20                     21
                     A                      A                      A
 Frequencies --   833.5416               862.7766               902.2368
 Red. masses --     1.9410                 2.0921                 1.7459
 Frc consts  --     0.7946                 0.9176                 0.8374
 IR Inten    --     0.8902                 0.6097                 0.1919

                    22                     23                     24
                     A                      A                      A
 Frequencies --   930.8947               932.4787               944.8859
 Red. masses --     1.1923                 1.3056                 1.7083
 Frc consts  --     0.6087                 0.6688                 0.8986
 IR Inten    --     0.0827                 2.9998                 0.8636

                    25                     26                     27
                     A                      A                      A
 Frequencies --   956.0217               962.4538               965.5228
 Red. masses --     1.6864                 1.5086                 1.5584
 Frc consts  --     0.9081                 0.8234                 0.8560
 IR Inten    --     7.3910                 0.1967                 0.2611

                    28                     29                     30
                     A                      A                      A
 Frequencies --  1005.8359              1053.3871              1107.9230
 Red. masses --     1.1057                 2.0366                 1.6304
 Frc consts  --     0.6591                 1.3315                 1.1792
 IR Inten    --    34.1495                 9.9659                 2.7046

                    31                     32                     33
                     A                      A                      A
 Frequencies --  1115.0731              1132.7444              1184.5421
 Red. masses --     2.2774                 2.1383                 1.9393
 Frc consts  --     1.6684                 1.6165                 1.6032
 IR Inten    --     4.2958                 1.3675                 4.9181

                    34                     35                     36
                     A                      A                      A
 Frequencies --  1189.0079              1199.1407              1245.8475
 Red. masses --     1.7450                 2.0044                 1.4318
 Frc consts  --     1.4535                 1.6981                 1.3093
 IR Inten    --     4.8136                 1.1694                 3.6568

                    37                     38                     39
                     A                      A                      A
 Frequencies --  1290.0693              1314.3946              1327.5534
 Red. masses --     1.2284                 1.3075                 1.2998
 Frc consts  --     1.2046                 1.3309                 1.3497
 IR Inten    --     5.6646                 0.2612                 0.6225

                    40                     41                     42
                     A                      A                      A
 Frequencies --  1341.3800              1366.4949              1367.3983
 Red. masses --     1.3206                 1.3600                 1.4092
 Frc consts  --     1.4000                 1.4963                 1.5524
 IR Inten    --     2.2324                 4.4632                 0.8046

                    43                     44                     45
                     A                      A                      A
 Frequencies --  1388.4214              1397.2209              1403.0056
 Red. masses --     1.4276                 1.2245                 1.2635
 Frc consts  --     1.6214                 1.4085                 1.4654
 IR Inten    --     2.2403                 5.3907                 6.7193

                    46                     47                     48
                     A                      A                      A
 Frequencies --  1417.2703              1422.3754              1478.6073
 Red. masses --     1.2234                 1.2348                 1.0922
 Frc consts  --     1.4478                 1.4719                 1.4068
 IR Inten    --     3.0922                 6.3009                 2.4434

                    49                     50                     51
                     A                      A                      A
 Frequencies --  1489.4631              1490.3774              1490.8286
 Red. masses --     1.0420                 1.0466                 1.0453
 Frc consts  --     1.3620                 1.3697                 1.3688
 IR Inten    --     0.1957                 2.7686                 0.6705

                    52                     53                     54
                     A                      A                      A
 Frequencies --  1496.5831              1502.2083              1506.1880
 Red. masses --     1.0578                 1.0476                 1.0497
 Frc consts  --     1.3959                 1.3928                 1.4030
 IR Inten    --     4.0716                 5.5107                 8.8415

                    55                     56                     57
                     A                      A                      A
 Frequencies --  1510.8208              1512.0329              1727.9290
 Red. masses --     1.0525                 1.0521                 6.2003
 Frc consts  --     1.4155                 1.4172                10.9072
 IR Inten    --     6.0452                15.2477                 0.0896

                    58                     59                     60
                     A                      A                      A
 Frequencies --  2988.6703              2991.2644              3010.6175
 Red. masses --     1.0827                 1.0619                 1.0824
 Frc consts  --     5.6978                 5.5980                 5.7802
 IR Inten    --    12.3481                34.5122                 8.1120

                    61                     62                     63
                     A                      A                      A
 Frequencies --  3013.1572              3014.5602              3018.4387
 Red. masses --     1.0364                 1.0353                 1.0386
 Frc consts  --     5.5437                 5.5431                 5.5754
 IR Inten    --    32.4546                28.5051                35.5897

                    64                     65                     66
                     A                      A                      A
 Frequencies --  3019.2507              3034.7570              3071.7689
 Red. masses --     1.0371                 1.0972                 1.1001
 Frc consts  --     5.5703                 5.9537                 6.1160
 IR Inten    --    33.6959                23.3011                 7.3554

                    67                     68                     69
                     A                      A                      A
 Frequencies --  3073.5548              3078.3876              3080.2285
 Red. masses --     1.1015                 1.0997                 1.0999
 Frc consts  --     6.1309                 6.1398                 6.1488
 IR Inten    --     1.4864                66.0445                62.9304

                    70                     71                     72
                     A                      A                      A
 Frequencies --  3083.9063              3090.5014              3091.4681
 Red. masses --     1.1016                 1.0908                 1.1017
 Frc consts  --     6.1725                 6.1386                 6.2037
 IR Inten    --    45.3135                17.1378                27.1957

                    73                     74                     75
                     A                      A                      A
 Frequencies --  3093.8334              3096.9135              3098.8064
 Red. masses --     1.1000                 1.1001                 1.0865
 Frc consts  --     6.2033                 6.2166                 6.1468
 IR Inten    --    38.7187                27.9999                75.7996

 - Thermochemistry -
 -------------------
 Temperature   298.150 Kelvin.  Pressure   1.00000 Atm.
 Atom     1 has atomic number  6 and mass  12.00000

 Molecular mass:   126.14085 amu.
 Principal axes and moments of inertia in atomic units:
                           1         2         3
     Eigenvalues --   493.619213043.697433374.36320
           X            1.00000   0.00083  -0.00044
           Y           -0.00083   1.00000  -0.00023
           Z            0.00044   0.00023   1.00000
 This molecule is an asymmetric top.
 Rotational symmetry number  1.
 Warning -- assumption of classical behavior for rotation
           may cause significant error
 Rotational temperatures (Kelvin)      0.17547     0.02846     0.02567
 Rotational constants (GHZ):           3.65614     0.59294     0.53484
 Zero-point vibrational energy     652800.2 (Joules/Mol)
                                  156.02299 (Kcal/Mol)
 Warning -- explicit consideration of  17 degrees of freedom as
           vibrations may cause significant error
 Vibrational temperatures:     50.98    83.79   122.55   162.02   278.53
          (Kelvin)            320.33   323.59   355.40   365.16   390.87
                              413.00   523.03   549.18   617.17   651.37
                              675.18   781.91  1140.80  1199.28  1241.34
                             1298.12  1339.35  1341.63  1359.48  1375.50
                             1384.75  1389.17  1447.17  1515.59  1594.05
                             1604.34  1629.76  1704.29  1710.72  1725.29
                             1792.49  1856.12  1891.12  1910.05  1929.94
                             1966.08  1967.38  1997.63  2010.29  2018.61
                             2039.13  2046.48  2127.38  2143.00  2144.32
                             2144.97  2153.25  2161.34  2167.07  2173.73
                             2175.48  2486.10  4300.02  4303.76  4331.60
                             4335.26  4337.27  4342.85  4344.02  4366.33
                             4419.58  4422.15  4429.11  4431.76  4437.05
                             4446.54  4447.93  4451.33  4455.76  4458.49

 Zero-point correction=                           0.248638 (Hartree/Particle)
 Thermal correction to Energy=                    0.260652
 Thermal correction to Enthalpy=                  0.261596
 Thermal correction to Gibbs Free Energy=         0.210603
 Sum of electronic and zero-point Energies=           -353.646475
 Sum of electronic and thermal Energies=              -353.634462
 Sum of electronic and thermal Enthalpies=            -353.633518
 Sum of electronic and thermal Free Energies=         -353.684511

                     E (Thermal)             CV                S
                      KCal/Mol        Cal/Mol-Kelvin    Cal/Mol-Kelvin
 Total                  163.561             43.773            107.324
 Electronic               0.000              0.000              0.000
 Translational            0.889              2.981             40.410
 Rotational               0.889              2.981             30.007
 Vibrational            161.784             37.811             36.908
 Vibration     1          0.594              1.982              5.499
 Vibration     2          0.596              1.974              4.516
 Vibration     3          0.601              1.959              3.768
 Vibration     4          0.607              1.939              3.223
 Vibration     5          0.635              1.849              2.193
 Vibration     6          0.648              1.807              1.937
 Vibration     7          0.650              1.803              1.919
 Vibration     8          0.661              1.768              1.752
 Vibration     9          0.665              1.756              1.704
 Vibration    10          0.675              1.725              1.586
 Vibration    11          0.684              1.698              1.491
 Vibration    12          0.737              1.547              1.107
 Vibration    13          0.751              1.509              1.032
 Vibration    14          0.790              1.407              0.862
 Vibration    15          0.811              1.355              0.788
 Vibration    16          0.826              1.318              0.740
 Vibration    17          0.899              1.154              0.558

 Optimization completed.
    -- Stationary point found.
 Normal termination of Gaussian 09 at Sun Feb  9 05:05:56 2014.

 -----------------------------------------------------------
 #P Geom=AllCheck Guess=TCheck SCRF=Check CCSD(T)/6-31+G(d')
 -----------------------------------------------------------

 Structure from the checkpoint file:  C9H18_3_26.chk
 ---------------------
 optimization and freq
 ---------------------
 Charge =  0 Multiplicity = 1

 SCF Done:  E(RHF) =  -351.284942343     A.U. after   12 cycles
 E2 =    -0.1202140785D+01 EUMP2 =    -0.35248708312857D+03
 CCSD(T)
 CCSD(T)= -0.35263612014D+03
 02708\MP4SDQ=-352.5905262\CCSD=-352.5927884\CCSD(T)=-352.6361201\RMSD=
 Normal termination of Gaussian 09 at Sun Feb  9 06:18:26 2014.

 -----------------------------------------------------
 #P Geom=AllCheck Guess=TCheck SCRF=Check MP4SDQ/CBSB4
 -----------------------------------------------------

 Structure from the checkpoint file:  C9H18_3_26.chk
 ---------------------
 optimization and freq
 ---------------------
 Charge =  0 Multiplicity = 1

 SCF Done:  E(RHF) =  -351.308598807     A.U. after   11 cycles
 E2 =    -0.1320327430D+01 EUMP2 =    -0.35262892623670D+03
 Normal termination of Gaussian 09 at Sun Feb  9 06:23:05 2014.

 ----------------------------------------------------------------------
 #P Geom=AllCheck Guess=TCheck SCRF=Check MP2/CBSB3 CBSExtrap=(NMin=10,
 MinPop)
 ----------------------------------------------------------------------

 Structure from the checkpoint file:  C9H18_3_26.chk
 ---------------------
 optimization and freq
 ---------------------
 Charge =  0 Multiplicity = 1

                         Standard orientation:
 ---------------------------------------------------------------------
 Center     Atomic      Atomic             Coordinates (Angstroms)
 Number     Number       Type             X           Y           Z
 ---------------------------------------------------------------------
      1          6           0        3.501118   -1.022480    0.171309
      2          1           0        3.208040   -2.035928   -0.113641
      3          1           0        3.600572   -0.996508    1.261753
      4          1           0        4.486835   -0.817627   -0.257409
      5          6           0       -1.341122   -0.892204    0.158882
      6          1           0       -1.290635   -0.855988    1.253995
      7          1           0       -1.614842   -1.922548   -0.106198
      8          6           0       -2.473174    0.041613   -0.330053
      9          1           0       -2.464866    0.020943   -1.428494
     10          6           0       -3.839306   -0.475141    0.139108
     11          1           0       -3.897547   -0.485098    1.233080
     12          1           0       -4.650759    0.159138   -0.229324
     13          1           0       -4.023976   -1.494190   -0.213676
     14          6           0       -2.249143    1.491121    0.117825
     15          1           0       -3.030922    2.148695   -0.273402
     16          1           0       -2.268049    1.565595    1.211046
     17          1           0       -1.283506    1.871445   -0.222903
     18          6           0        2.919967    1.439854    0.041120
     19          1           0        2.213963    2.182774   -0.338185
     20          1           0        2.993441    1.570812    1.126000
     21          1           0        3.904080    1.653381   -0.386975
     22          6           0        2.466029    0.011133   -0.309094
     23          1           0        2.390101   -0.064555   -1.400625
     24          6           0        1.105897   -0.280861    0.272496
     25          1           0        1.042229   -0.237918    1.361543
     26          6           0        0.010867   -0.585548   -0.422560
     27          1           0        0.079040   -0.627351   -1.510785
 ---------------------------------------------------------------------

 SCF Done:  E(RHF) =  -351.395280311     A.U. after   11 cycles
 E2 =    -0.1533377081D+01 EUMP2 =    -0.35292865739257D+03
 E2(CBS)=      -1.678557 CBS-Int=       0.052293 OIii=      13.707375

 The electronic state is 1-A.
 Alpha  occ. eigenvalues --  -11.22764 -11.22409 -11.21924 -11.21768 -11.21677
 Alpha  occ. eigenvalues --  -11.20988 -11.20956 -11.20816 -11.20423  -1.10457
 Alpha  occ. eigenvalues --   -1.07780  -1.01328  -0.92591  -0.92480  -0.91683
 Alpha  occ. eigenvalues --   -0.80564  -0.76067  -0.74603  -0.64138  -0.61711
 Alpha  occ. eigenvalues --   -0.60901  -0.59102  -0.58180  -0.55890  -0.55293
 Alpha  occ. eigenvalues --   -0.53270  -0.53224  -0.52059  -0.50295  -0.48359
 Alpha  occ. eigenvalues --   -0.47910  -0.46672  -0.46617  -0.45746  -0.44482
 Alpha  occ. eigenvalues --   -0.34155
 Alpha virt. eigenvalues --    0.04053   0.04822   0.05261   0.05404   0.06329
 Alpha virt. eigenvalues --    0.06663   0.06996   0.07346   0.08409   0.08578
 Alpha virt. eigenvalues --    0.08895   0.09230   0.09687   0.10298   0.11285

 Mulliken atomic charges:
              1
     1  C   -0.512572
     2  H    0.067315
     3  H    0.058382
     4  H    0.086263
     5  C   -0.281934
     6  H    0.070669
     7  H    0.045217
     8  C    0.637982
     9  H    0.031616
    10  C   -0.428492
    11  H    0.057988
    12  H    0.070148
    13  H    0.059318
    14  C   -0.528593
    15  H    0.069792
    16  H    0.064561
    17  H    0.066079
    18  C   -0.537497
    19  H    0.054741
    20  H    0.064106
    21  H    0.086641
    22  C    0.935843
    23  H    0.037963
    24  C   -0.314618
    25  H    0.137142
    26  C   -0.239186
    27  H    0.141123
 Sum of Mulliken atomic charges =   0.00000

 Dipole moment (field-independent basis, Debye):
    X=              0.0107    Y=              0.0018    Z=             -0.1835  Tot=              0.1838
 Quadrupole moment (field-independent basis, Debye-Ang):
   XX=            -60.5193   YY=            -62.9383   ZZ=            -59.3279
   XY=              0.6693   XZ=              0.2081   YZ=              0.2238

 Normal termination of Gaussian 09 at Sun Feb  9 06:42:32 2014.
