 Gaussian 09, Revision C.01,

 --------------------------------------------------
 #p UB3LYP/6-311++G(d,p) guess=mix stable=(opt,xqc)
 --------------------------------------------------

 (Enter /usr/caen/gaussian-09revc/g09/l101.exe)
 --------------------------------------------
 C9H18OOH_3_26_d using cbs-qb3 to cal. energy
 --------------------------------------------
 Charge =  0 Multiplicity = 2

 SCF Done:  E(UB3LYP) =  -504.854162373     A.U. after   18 cycles
 Normal termination of Gaussian 09 at Sun Feb  9 06:11:22 2014.
 Gaussian 09:  EM64L-G09RevC.01 23-Sep-2011

 ------------------------------------------------
 #p cbs-qb3 opt=calcfc freq geom=check guess=read
 ------------------------------------------------

 ---------------------
 optimization and freq
 ---------------------
 Structure from the checkpoint file:  C9H18OOH_3_26_d.chk
 Charge =  0 Multiplicity = 2

 SCF Done:  E(UB3LYP) =  -504.846100996     A.U. after   11 cycles
 SCF Done:  E(UB3LYP) =  -504.846198683     A.U. after   13 cycles
 SCF Done:  E(UB3LYP) =  -504.846199630     A.U. after    9 cycles
 SCF Done:  E(UB3LYP) =  -504.846199655     A.U. after    7 cycles
 Optimization completed.
    -- Stationary point found.
 Normal termination of Gaussian 09 at Sun Feb  9 06:24:52 2014.

 ---------------------------------------------------------
 #P Geom=AllCheck Guess=TCheck SCRF=Check B3LYP/CBSB7 Freq
 ---------------------------------------------------------

 Structure from the checkpoint file:  C9H18OOH_3_26_d.chk
 ---------------------
 optimization and freq
 ---------------------
 Charge =  0 Multiplicity = 2

 SCF Done:  E(UB3LYP) =  -504.846199655     A.U. after    1 cycles

  Exact polarizability: 137.525  -2.360 113.586   1.698  -2.479  94.405
 Approx polarizability: 158.750  -6.932 156.690   4.644  -7.447 150.457

                     1                      2                      3
                     A                      A                      A
 Frequencies --    23.2460                41.3500                65.9937
 Red. masses --     2.7128                 3.1720                 3.5224
 Frc consts  --     0.0009                 0.0032                 0.0090
 IR Inten    --     0.1746                 0.3985                 1.6743

                     4                      5                      6
                     A                      A                      A
 Frequencies --    82.6851               122.9128               148.4258
 Red. masses --     2.9760                 3.5973                 2.7594
 Frc consts  --     0.0120                 0.0320                 0.0358
 IR Inten    --     0.2138                 6.1606                 0.6409

                     7                      8                      9
                     A                      A                      A
 Frequencies --   204.3280               217.8430               226.8301
 Red. masses --     2.6359                 1.7455                 1.0685
 Frc consts  --     0.0648                 0.0488                 0.0324
 IR Inten    --     3.3117                19.7684                 0.9869

                    10                     11                     12
                     A                      A                      A
 Frequencies --   230.8234               251.9306               258.6692
 Red. masses --     1.1600                 1.3522                 1.1714
 Frc consts  --     0.0364                 0.0506                 0.0462
 IR Inten    --     9.9949                42.9567                54.9887

                    13                     14                     15
                     A                      A                      A
 Frequencies --   267.2104               293.1539               305.2883
 Red. masses --     1.7190                 1.9097                 1.6029
 Frc consts  --     0.0723                 0.0967                 0.0880
 IR Inten    --     1.3275                 9.3212                 4.2147

                    16                     17                     18
                     A                      A                      A
 Frequencies --   367.0111               388.1709               393.2259
 Red. masses --     2.2065                 2.4112                 2.0844
 Frc consts  --     0.1751                 0.2141                 0.1899
 IR Inten    --     1.3608                 9.0174                 2.0814

                    19                     20                     21
                     A                      A                      A
 Frequencies --   422.6420               453.5277               483.8974
 Red. masses --     2.5457                 1.9458                 2.5389
 Frc consts  --     0.2679                 0.2358                 0.3503
 IR Inten    --     2.6955                 6.0813                 4.7485

                    22                     23                     24
                     A                      A                      A
 Frequencies --   516.5195               605.4320               811.9789
 Red. masses --     3.0022                 3.9534                 2.6897
 Frc consts  --     0.4719                 0.8538                 1.0448
 IR Inten    --     3.0610                 4.7903                 0.8151

                    25                     26                     27
                     A                      A                      A
 Frequencies --   838.0265               869.5812               884.6716
 Red. masses --     2.0228                 1.7551                 6.4483
 Frc consts  --     0.8370                 0.7819                 2.9735
 IR Inten    --     2.5377                 1.5044                32.5470

                    28                     29                     30
                     A                      A                      A
 Frequencies --   907.7032               928.3267               937.5951
 Red. masses --     4.4291                 1.2366                 1.1929
 Frc consts  --     2.1501                 0.6279                 0.6179
 IR Inten    --     3.2408                 2.2484                 1.9092

                    31                     32                     33
                     A                      A                      A
 Frequencies --   941.3118               951.5769               966.4284
 Red. masses --     2.0955                 1.8365                 1.4791
 Frc consts  --     1.0940                 0.9798                 0.8139
 IR Inten    --    17.2506                 8.8687                 0.0570

                    34                     35                     36
                     A                      A                      A
 Frequencies --   974.8720              1040.0041              1093.3003
 Red. masses --     1.6513                 2.7369                 1.4602
 Frc consts  --     0.9246                 1.7442                 1.0284
 IR Inten    --     8.2268                 8.2313                 0.8335

                    37                     38                     39
                     A                      A                      A
 Frequencies --  1116.6167              1132.7340              1154.5271
 Red. masses --     1.9256                 2.1254                 1.9710
 Frc consts  --     1.4146                 1.6067                 1.5479
 IR Inten    --     1.1417                 0.5388                 2.7499

                    40                     41                     42
                     A                      A                      A
 Frequencies --  1184.2160              1191.1003              1195.3811
 Red. masses --     2.2597                 1.8173                 1.8513
 Frc consts  --     1.8671                 1.5191                 1.5586
 IR Inten    --     0.2237                 7.0040                 0.5170

                    43                     44                     45
                     A                      A                      A
 Frequencies --  1235.8746              1255.5578              1306.3673
 Red. masses --     1.4358                 1.3207                 1.3328
 Frc consts  --     1.2921                 1.2267                 1.3401
 IR Inten    --     4.3129                 3.1525                 1.6632

                    46                     47                     48
                     A                      A                      A
 Frequencies --  1319.6014              1342.8891              1348.3689
 Red. masses --     1.1813                 1.1523                 1.2983
 Frc consts  --     1.2119                 1.2243                 1.3907
 IR Inten    --    14.4620                29.6272                 1.8419

                    49                     50                     51
                     A                      A                      A
 Frequencies --  1363.0631              1366.7869              1388.9384
 Red. masses --     1.3889                 1.3511                 1.4107
 Frc consts  --     1.5204                 1.4871                 1.6034
 IR Inten    --     2.1344                 2.6860                 3.1245

                    52                     53                     54
                     A                      A                      A
 Frequencies --  1399.6584              1401.9084              1415.6443
 Red. masses --     1.2601                 1.2670                 1.3576
 Frc consts  --     1.4544                 1.4671                 1.6030
 IR Inten    --     4.6354                14.7577                 5.5580

                    55                     56                     57
                     A                      A                      A
 Frequencies --  1420.8468              1428.5124              1459.6390
 Red. masses --     1.2308                 1.6589                 1.0762
 Frc consts  --     1.4640                 1.9945                 1.3509
 IR Inten    --     5.9186                 4.5470                 3.4554

                    58                     59                     60
                     A                      A                      A
 Frequencies --  1489.0560              1492.2008              1495.0065
 Red. masses --     1.0427                 1.0503                 1.0537
 Frc consts  --     1.3622                 1.3778                 1.3875
 IR Inten    --     0.3242                 0.8301                 4.0696

                    61                     62                     63
                     A                      A                      A
 Frequencies --  1497.4396              1505.5314              1506.2672
 Red. masses --     1.0408                 1.0497                 1.0559
 Frc consts  --     1.3751                 1.4018                 1.4115
 IR Inten    --     4.2546                 6.2039                 8.3651

                    64                     65                     66
                     A                      A                      A
 Frequencies --  1510.3154              1522.1977              2953.2120
 Red. masses --     1.0537                 1.0491                 1.0678
 Frc consts  --     1.4161                 1.4323                 5.4867
 IR Inten    --     9.1610                13.4548                15.9862

                    67                     68                     69
                     A                      A                      A
 Frequencies --  2983.3326              2997.5383              3000.0042
 Red. masses --     1.0829                 1.0822                 1.0866
 Frc consts  --     5.6787                 5.7292                 5.7620
 IR Inten    --     0.2088                10.0521                20.4399

                    70                     71                     72
                     A                      A                      A
 Frequencies --  3010.8893              3013.5923              3018.7945
 Red. masses --     1.0816                 1.0357                 1.0368
 Frc consts  --     5.7768                 5.5419                 5.5668
 IR Inten    --    21.1851                29.1261                27.9913

                    73                     74                     75
                     A                      A                      A
 Frequencies --  3020.0730              3024.9913              3072.9407
 Red. masses --     1.0373                 1.0368                 1.1005
 Frc consts  --     5.5743                 5.5897                 6.1228
 IR Inten    --    38.0448                27.4857                 6.4043

                    76                     77                     78
                     A                      A                      A
 Frequencies --  3079.7225              3080.2072              3085.2055
 Red. masses --     1.0998                 1.1006                 1.1022
 Frc consts  --     6.1460                 6.1526                 6.1811
 IR Inten    --    54.8062                24.6126                13.2736

                    79                     80                     81
                     A                      A                      A
 Frequencies --  3085.6368              3087.6652              3091.4663
 Red. masses --     1.1006                 1.1014                 1.1019
 Frc consts  --     6.1743                 6.1867                 6.2049
 IR Inten    --    57.7245                69.8173                43.2667

                    82                     83                     84
                     A                      A                      A
 Frequencies --  3096.0782              3138.9586              3774.7476
 Red. masses --     1.1009                 1.0870                 1.0685
 Frc consts  --     6.2178                 6.3103                 8.9698
 IR Inten    --    36.8845                18.6311                34.1124

 - Thermochemistry -
 -------------------
 Temperature   298.150 Kelvin.  Pressure   1.00000 Atm.
 Atom     1 has atomic number  6 and mass  12.00000

 Molecular mass:   159.13850 amu.
 Principal axes and moments of inertia in atomic units:
                           1         2         3
     Eigenvalues --  1080.263883558.174604393.45202
           X            0.99986   0.01642  -0.00188
           Y           -0.01641   0.99983   0.00802
           Z            0.00201  -0.00799   0.99997
 This molecule is an asymmetric top.
 Rotational symmetry number  1.
 Warning -- assumption of classical behavior for rotation
           may cause significant error
 Rotational temperatures (Kelvin)      0.08018     0.02434     0.01971
 Rotational constants (GHZ):           1.67065     0.50721     0.41078
 Zero-point vibrational energy     697290.1 (Joules/Mol)
                                  166.65632 (Kcal/Mol)
 Warning -- explicit consideration of  23 degrees of freedom as
           vibrations may cause significant error
 Vibrational temperatures:     33.45    59.49    94.95   118.97   176.84
          (Kelvin)            213.55   293.98   313.43   326.36   332.10
                              362.47   372.17   384.46   421.78   439.24
                              528.05   558.49   565.76   608.09   652.52
                              696.22   743.16   871.08  1168.26  1205.73
                             1251.13  1272.84  1305.98  1335.65  1348.99
                             1354.34  1369.11  1390.47  1402.62  1496.33
                             1573.01  1606.56  1629.75  1661.10  1703.82
                             1713.73  1719.88  1778.15  1806.47  1879.57
                             1898.61  1932.12  1940.00  1961.14  1966.50
                             1998.37  2013.79  2017.03  2036.79  2044.28
                             2055.31  2100.09  2142.42  2146.94  2150.98
                             2154.48  2166.12  2167.18  2173.00  2190.10
                             4249.01  4292.34  4312.78  4316.33  4331.99
                             4335.88  4343.37  4345.21  4352.28  4421.27
                             4431.03  4431.73  4438.92  4439.54  4442.46
                             4447.92  4454.56  4516.26  5431.01

 Zero-point correction=                           0.265584 (Hartree/Particle)
 Thermal correction to Energy=                    0.280517
 Thermal correction to Enthalpy=                  0.281462
 Thermal correction to Gibbs Free Energy=         0.222726
 Sum of electronic and zero-point Energies=           -504.580616
 Sum of electronic and thermal Energies=              -504.565682
 Sum of electronic and thermal Enthalpies=            -504.564738
 Sum of electronic and thermal Free Energies=         -504.623473

                     E (Thermal)             CV                S
                      KCal/Mol        Cal/Mol-Kelvin    Cal/Mol-Kelvin
 Total                  176.027             54.170            123.619
 Electronic               0.000              0.000              1.377
 Translational            0.889              2.981             41.103
 Rotational               0.889              2.981             31.202
 Vibrational            174.250             48.208             49.936
 Vibration     1          0.593              1.985              6.336
 Vibration     2          0.594              1.981              5.193
 Vibration     3          0.597              1.970              4.269
 Vibration     4          0.600              1.961              3.826
 Vibration     5          0.610              1.930              3.054
 Vibration     6          0.618              1.904              2.692
 Vibration     7          0.640              1.834              2.094
 Vibration     8          0.646              1.814              1.977
 Vibration     9          0.650              1.800              1.904
 Vibration    10          0.653              1.794              1.873
 Vibration    11          0.664              1.760              1.717
 Vibration    12          0.667              1.748              1.671
 Vibration    13          0.672              1.733              1.614
 Vibration    14          0.688              1.686              1.456
 Vibration    15          0.696              1.664              1.388
 Vibration    16          0.740              1.540              1.092
 Vibration    17          0.756              1.495              1.007
 Vibration    18          0.760              1.485              0.988
 Vibration    19          0.785              1.421              0.883
 Vibration    20          0.812              1.353              0.785
 Vibration    21          0.840              1.286              0.700
 Vibration    22          0.872              1.213              0.618
 Vibration    23          0.964              1.020              0.440

 Optimization completed.
    -- Stationary point found.
 Normal termination of Gaussian 09 at Sun Feb  9 06:34:24 2014.

 -----------------------------------------------------------
 #P Geom=AllCheck Guess=TCheck SCRF=Check CCSD(T)/6-31+G(d')
 -----------------------------------------------------------

 Structure from the checkpoint file:  C9H18OOH_3_26_d.chk
 ---------------------
 optimization and freq
 ---------------------
 Charge =  0 Multiplicity = 2

 SCF Done:  E(UHF) =  -501.446135639     A.U. after   23 cycles
 E2 =    -0.1571384859D+01 EUMP2 =    -0.50301752049767D+03
 CCSD(T)
 CCSD(T)= -0.50318953873D+03
 03.1333066\CCSD=-503.1356971\CCSD(T)=-503.1895387\S2=0.764254\S2-1=0.7
 Normal termination of Gaussian 09 at Sun Feb  9 17:01:31 2014.

 -----------------------------------------------------
 #P Geom=AllCheck Guess=TCheck SCRF=Check MP4SDQ/CBSB4
 -----------------------------------------------------

 Structure from the checkpoint file:  C9H18OOH_3_26_d.chk
 ---------------------
 optimization and freq
 ---------------------
 Charge =  0 Multiplicity = 2

 SCF Done:  E(UHF) =  -501.477946160     A.U. after   16 cycles
 E2 =    -0.1696782459D+01 EUMP2 =    -0.50317472861904D+03
 Normal termination of Gaussian 09 at Sun Feb  9 17:23:56 2014.

 ----------------------------------------------------------------------
 #P Geom=AllCheck Guess=TCheck SCRF=Check MP2/CBSB3 CBSExtrap=(NMin=10,
 MinPop)
 ----------------------------------------------------------------------

 Structure from the checkpoint file:  C9H18OOH_3_26_d.chk
 ---------------------
 optimization and freq
 ---------------------
 Charge =  0 Multiplicity = 2

                         Standard orientation:
 ---------------------------------------------------------------------
 Center     Atomic      Atomic             Coordinates (Angstroms)
 Number     Number       Type             X           Y           Z
 ---------------------------------------------------------------------
      1          6           0        3.522938    0.359961   -0.125093
      2          1           0        3.738439   -0.538886   -0.708383
      3          1           0        3.686622    0.138264    0.933780
      4          1           0        4.251153    1.119196   -0.423888
      5          6           0        2.096194    0.861986   -0.381511
      6          1           0        1.979364    0.992456   -1.465182
      7          6           0       -0.345971    0.185024   -0.452319
      8          1           0       -0.423684    0.816203   -1.334052
      9          6           0       -1.551877   -0.564516    0.001786
     10          1           0       -1.485635   -0.755532    1.082983
     11          1           0       -1.537434   -1.565112   -0.459999
     12          6           0       -2.897593    0.113457   -0.322329
     13          1           0       -2.904194    0.330823   -1.399221
     14          6           0       -4.068413   -0.832685   -0.027668
     15          1           0       -4.100506   -1.094435    1.035607
     16          1           0       -5.025505   -0.369066   -0.283440
     17          1           0       -3.982726   -1.762838   -0.596710
     18          6           0        1.868580    2.221193    0.297410
     19          1           0        1.991694    2.136966    1.382531
     20          1           0        2.589080    2.960725   -0.062510
     21          1           0        0.865348    2.608857    0.105375
     22          6           0       -3.061525    1.440604    0.430545
     23          1           0       -4.000524    1.933486    0.162404
     24          1           0       -3.071264    1.272329    1.513176
     25          1           0       -2.244328    2.132572    0.210141
     26          6           0        1.012955   -0.138422    0.067806
     27          1           0        0.997583   -0.207013    1.163240
     28          8           0        1.287102   -1.497641   -0.399279
     29          8           0        2.004885   -2.221989    0.643799
     30          1           0        2.888894   -2.271564    0.256217
 ---------------------------------------------------------------------

 SCF Done:  E(UHF) =  -501.615199882     A.U. after   18 cycles
 E2 =    -0.1999814306D+01 EUMP2 =    -0.50361501418773D+03
 E2(CBS)=      -2.193946 CBS-Int=       0.065657 OIii=      17.367623

 The electronic state is 2-A.
 Alpha  occ. eigenvalues --  -20.61613 -20.61391 -11.28262 -11.23439 -11.23269
 Alpha  occ. eigenvalues --  -11.22557 -11.21889 -11.21827 -11.21557 -11.20859
 Alpha  occ. eigenvalues --  -11.20790  -1.45856  -1.22525  -1.09982  -1.08046
 Alpha  occ. eigenvalues --   -1.01726  -0.93722  -0.92693  -0.91469  -0.82282
 Alpha  occ. eigenvalues --   -0.78032  -0.76416  -0.71204  -0.66172  -0.64316
 Alpha  occ. eigenvalues --   -0.62954  -0.61591  -0.60698  -0.59016  -0.57795
 Alpha  occ. eigenvalues --   -0.55790  -0.54360  -0.53918  -0.53476  -0.52641
 Alpha  occ. eigenvalues --   -0.51735  -0.50792  -0.49275  -0.48398  -0.47399
 Alpha  occ. eigenvalues --   -0.46698  -0.46150  -0.45318  -0.42747  -0.34677
 Alpha virt. eigenvalues --    0.03869   0.04570   0.05144   0.05277   0.06253
 Alpha virt. eigenvalues --    0.06572   0.06822   0.07479   0.08163   0.08483
 Alpha virt. eigenvalues --    0.09003   0.09282   0.09795   0.10072   0.11392

  Beta  occ. eigenvalues --  -20.61485 -20.61192 -11.28565 -11.23420 -11.22506
  Beta  occ. eigenvalues --  -11.21897 -11.21866 -11.21810 -11.20853 -11.20842
  Beta  occ. eigenvalues --  -11.20799  -1.45394  -1.21773  -1.08886  -1.07990
  Beta  occ. eigenvalues --   -0.98599  -0.93678  -0.92654  -0.91360  -0.80320
  Beta  occ. eigenvalues --   -0.76973  -0.75493  -0.70925  -0.65087  -0.63654
  Beta  occ. eigenvalues --   -0.62525  -0.60940  -0.60107  -0.58696  -0.57365
  Beta  occ. eigenvalues --   -0.55642  -0.53882  -0.53759  -0.53352  -0.52346
  Beta  occ. eigenvalues --   -0.50921  -0.50166  -0.49074  -0.48062  -0.47011
  Beta  occ. eigenvalues --   -0.46223  -0.45944  -0.45089  -0.42494
  Beta virt. eigenvalues --    0.03879   0.04575   0.05143   0.05263   0.06257
  Beta virt. eigenvalues --    0.06560   0.06810   0.07395   0.08172   0.08473
  Beta virt. eigenvalues --    0.09013   0.09283   0.09772   0.09947   0.10935

 Mulliken atomic charges:
              1
     1  C   -0.407650
     2  H    0.056312
     3  H    0.095179
     4  H    0.095816
     5  C    1.081637
     6  H    0.065522
     7  C    0.204870
     8  H    0.150515
     9  C   -0.912047
    10  H    0.077621
    11  H    0.082625
    12  C    0.917940
    13  H    0.023077
    14  C   -0.409465
    15  H    0.052661
    16  H    0.093155
    17  H    0.061817
    18  C   -0.656529
    19  H    0.063401
    20  H    0.090371
    21  H    0.076541
    22  C   -0.572566
    23  H    0.086313
    24  H    0.063698
    25  H    0.054300
    26  C   -0.587509
    27  H    0.160432
    28  O   -0.132897
    29  O   -0.239126
    30  H    0.263987
 Sum of Mulliken atomic charges =   0.00000

 Dipole moment (field-independent basis, Debye):
    X=              0.8626    Y=              1.7644    Z=             -0.3168  Tot=              1.9894
 Quadrupole moment (field-independent basis, Debye-Ang):
   XX=            -64.8231   YY=            -76.0128   ZZ=            -72.1707
   XY=             -0.0797   XZ=             -0.1352   YZ=             -0.0579

 Normal termination of Gaussian 09 at Sun Feb  9 18:27:11 2014.
