 Gaussian 09, Revision C.01,
 Gaussian 09:  EM64L-G09RevC.01 23-Sep-2011

 --------------------------
 #p cbs-qb3 opt=calcfc freq
 --------------------------

 (Enter /usr/caen/gaussian-09revc/g09/l101.exe)
 --------------------------------------------
 C9H18OOH_3_26_a using cbs-qb3 to cal. energy
 --------------------------------------------
 Charge =  0 Multiplicity = 2

 SCF Done:  E(UB3LYP) =  -504.839946392     A.U. after   15 cycles
 SCF Done:  E(UB3LYP) =  -504.840021854     A.U. after   12 cycles
 SCF Done:  E(UB3LYP) =  -504.840027765     A.U. after   10 cycles
 SCF Done:  E(UB3LYP) =  -504.840029767     A.U. after   10 cycles
 SCF Done:  E(UB3LYP) =  -504.840029814     A.U. after    7 cycles
 Optimization completed.
    -- Stationary point found.
 Normal termination of Gaussian 09 at Sat Apr  5 23:28:43 2014.

 ---------------------------------------------------------
 #P Geom=AllCheck Guess=TCheck SCRF=Check B3LYP/CBSB7 Freq
 ---------------------------------------------------------

 Structure from the checkpoint file:  C9H18OOH_3_26_a.chk
 --------------------------------------------
 C9H18OOH_3_26_a using cbs-qb3 to cal. energy
 --------------------------------------------
 Charge =  0 Multiplicity = 2

 SCF Done:  E(UB3LYP) =  -504.840029814     A.U. after    1 cycles

  Exact polarizability: 137.543  -1.495 112.132   0.621  -1.004  94.719
 Approx polarizability: 161.359  -5.559 156.061   3.403  -2.791 149.034

                     1                      2                      3
                     A                      A                      A
 Frequencies --    24.9567                38.4189                55.9887
 Red. masses --     2.4405                 2.6399                 3.4193
 Frc consts  --     0.0009                 0.0023                 0.0063
 IR Inten    --     0.0993                 0.4064                 1.0279

                     4                      5                      6
                     A                      A                      A
 Frequencies --    88.0130               118.8564               143.7638
 Red. masses --     3.4183                 2.1376                 2.2379
 Frc consts  --     0.0156                 0.0178                 0.0273
 IR Inten    --     2.0609                 0.7945                 2.7265

                     7                      8                      9
                     A                      A                      A
 Frequencies --   183.4814               209.0309               223.9829
 Red. masses --     1.5890                 1.1446                 1.3066
 Frc consts  --     0.0315                 0.0295                 0.0386
 IR Inten    --     6.7113                 0.2341                 0.2212

                    10                     11                     12
                     A                      A                      A
 Frequencies --   228.7372               247.3379               258.0423
 Red. masses --     1.7851                 2.6831                 1.2203
 Frc consts  --     0.0550                 0.0967                 0.0479
 IR Inten    --     0.8231                 0.4480                 0.2347

                    13                     14                     15
                     A                      A                      A
 Frequencies --   280.3349               304.6129               315.0264
 Red. masses --     1.7819                 2.6191                 1.4871
 Frc consts  --     0.0825                 0.1432                 0.0870
 IR Inten    --    32.5545                13.9371                88.9924

                    16                     17                     18
                     A                      A                      A
 Frequencies --   380.7245               410.5728               417.0122
 Red. masses --     2.1785                 2.3167                 2.4420
 Frc consts  --     0.1860                 0.2301                 0.2502
 IR Inten    --     9.2625                 6.7008                 1.2601

                    19                     20                     21
                     A                      A                      A
 Frequencies --   425.4412               461.6817               496.7090
 Red. masses --     2.5801                 2.3512                 2.6616
 Frc consts  --     0.2751                 0.2953                 0.3869
 IR Inten    --     8.3128                 1.6374                 2.1504

                    22                     23                     24
                     A                      A                      A
 Frequencies --   552.1391               599.7808               750.7509
 Red. masses --     1.9088                 3.0464                 1.3528
 Frc consts  --     0.3429                 0.6457                 0.4492
 IR Inten    --    22.2340                16.4115                 0.5538

                    25                     26                     27
                     A                      A                      A
 Frequencies --   814.3032               850.2514               891.3988
 Red. masses --     2.4800                 2.2995                 2.1678
 Frc consts  --     0.9689                 0.9795                 1.0149
 IR Inten    --     3.4233                 5.8547                14.5760

                    28                     29                     30
                     A                      A                      A
 Frequencies --   925.1881               928.4211               935.0727
 Red. masses --     1.1667                 1.2572                 2.1677
 Frc consts  --     0.5884                 0.6385                 1.1167
 IR Inten    --     1.5387                 2.9726                 6.7662

                    31                     32                     33
                     A                      A                      A
 Frequencies --   944.1789               959.5351               966.3402
 Red. masses --     2.3656                 2.6192                 1.6783
 Frc consts  --     1.2425                 1.4208                 0.9234
 IR Inten    --     1.1153                 0.4194                 0.4675

                    34                     35                     36
                     A                      A                      A
 Frequencies --  1021.8448              1031.5007              1051.2917
 Red. masses --     2.4823                 2.2716                 2.5209
 Frc consts  --     1.5271                 1.4240                 1.6415
 IR Inten    --    15.1959                 4.6122                 6.9387

                    37                     38                     39
                     A                      A                      A
 Frequencies --  1056.1944              1117.6511              1143.4034
 Red. masses --     2.5279                 1.8627                 2.2695
 Frc consts  --     1.6615                 1.3709                 1.7481
 IR Inten    --     0.4654                 3.4928                 1.9765

                    40                     41                     42
                     A                      A                      A
 Frequencies --  1163.0102              1181.9407              1191.3564
 Red. masses --     2.1656                 2.2296                 1.7779
 Frc consts  --     1.7258                 1.8351                 1.4868
 IR Inten    --     2.2043                 2.6128                 6.1286

                    43                     44                     45
                     A                      A                      A
 Frequencies --  1237.6056              1270.9490              1305.7590
 Red. masses --     1.5019                 1.2399                 1.2839
 Frc consts  --     1.3554                 1.1801                 1.2897
 IR Inten    --     8.0583                 4.5499                 1.2862

                    46                     47                     48
                     A                      A                      A
 Frequencies --  1325.1380              1333.4896              1354.2496
 Red. masses --     1.2617                 1.1714                 1.3540
 Frc consts  --     1.3054                 1.2272                 1.4630
 IR Inten    --     0.4073                 1.5199                 0.2482

                    49                     50                     51
                     A                      A                      A
 Frequencies --  1361.5236              1366.0624              1375.3978
 Red. masses --     1.1725                 1.3695                 1.3329
 Frc consts  --     1.2806                 1.5058                 1.4856
 IR Inten    --     2.4314                 7.0493                 9.8837

                    52                     53                     54
                     A                      A                      A
 Frequencies --  1392.9702              1400.2572              1403.2332
 Red. masses --     1.2241                 1.3559                 1.2580
 Frc consts  --     1.3994                 1.5664                 1.4594
 IR Inten    --    34.7033                12.3969                16.6944

                    55                     56                     57
                     A                      A                      A
 Frequencies --  1410.2743              1422.8217              1462.8140
 Red. masses --     1.2131                 1.2453                 1.1731
 Frc consts  --     1.4215                 1.4853                 1.4790
 IR Inten    --     5.6525                 5.3037                 2.0616

                    58                     59                     60
                     A                      A                      A
 Frequencies --  1476.3853              1489.3246              1494.0309
 Red. masses --     1.0763                 1.0588                 1.0479
 Frc consts  --     1.3823                 1.3837                 1.3782
 IR Inten    --     1.6441                 1.0085                 2.5470

                    61                     62                     63
                     A                      A                      A
 Frequencies --  1496.0395              1501.9078              1505.9164
 Red. masses --     1.0532                 1.0769                 1.0501
 Frc consts  --     1.3889                 1.4313                 1.4031
 IR Inten    --     4.7848                 1.0847                 8.6467

                    64                     65                     66
                     A                      A                      A
 Frequencies --  1507.0499              1514.3255              2985.9589
 Red. masses --     1.0542                 1.0474                 1.0788
 Frc consts  --     1.4107                 1.4151                 5.6669
 IR Inten    --     4.5567                16.0648                 3.0027

                    67                     68                     69
                     A                      A                      A
 Frequencies --  2999.6284              3012.8156              3013.1105
 Red. masses --     1.0711                 1.0804                 1.0382
 Frc consts  --     5.6785                 5.7778                 5.5536
 IR Inten    --    20.9535                 6.8145                26.5992

                    70                     71                     72
                     A                      A                      A
 Frequencies --  3018.0768              3019.3952              3027.2624
 Red. masses --     1.0538                 1.0536                 1.0397
 Frc consts  --     5.6556                 5.6594                 5.6137
 IR Inten    --    13.5788                36.0165                13.5957

                    73                     74                     75
                     A                      A                      A
 Frequencies --  3037.4626              3062.0227              3071.9200
 Red. masses --     1.0803                 1.0915                 1.0999
 Frc consts  --     5.8725                 6.0294                 6.1155
 IR Inten    --    49.0563                 3.5531                 3.9210

                    76                     77                     78
                     A                      A                      A
 Frequencies --  3079.1698              3083.0847              3087.2787
 Red. masses --     1.0990                 1.1002                 1.1006
 Frc consts  --     6.1392                 6.1613                 6.1804
 IR Inten    --    68.0435                28.5758                51.1813

                    79                     80                     81
                     A                      A                      A
 Frequencies --  3090.0041              3093.6525              3104.7361
 Red. masses --     1.0995                 1.0977                 1.1004
 Frc consts  --     6.1854                 6.1896                 6.2495
 IR Inten    --    42.1914                54.8931                23.6229

                    82                     83                     84
                     A                      A                      A
 Frequencies --  3125.0930              3229.0512              3643.8981
 Red. masses --     1.0507                 1.1185                 1.0684
 Frc consts  --     6.0459                 6.8710                 8.3581
 IR Inten    --    12.4293                 9.2041                23.9362

 - Thermochemistry -
 -------------------
 Temperature   298.150 Kelvin.  Pressure   1.00000 Atm.
 Atom     1 has atomic number  6 and mass  12.00000

 Molecular mass:   159.13850 amu.
 Principal axes and moments of inertia in atomic units:
                           1         2         3
     Eigenvalues --  1031.675673627.277744421.93425
           X            0.99990   0.01378  -0.00015
           Y           -0.01378   0.99990   0.00363
           Z            0.00020  -0.00363   0.99999
 This molecule is an asymmetric top.
 Rotational symmetry number  1.
 Warning -- assumption of classical behavior for rotation
           may cause significant error
 Rotational temperatures (Kelvin)      0.08395     0.02388     0.01959
 Rotational constants (GHZ):           1.74933     0.49755     0.40813
 Zero-point vibrational energy     697299.8 (Joules/Mol)
                                  166.65865 (Kcal/Mol)
 Warning -- explicit consideration of  23 degrees of freedom as
           vibrations may cause significant error
 Vibrational temperatures:     35.91    55.28    80.56   126.63   171.01
          (Kelvin)            206.84   263.99   300.75   322.26   329.10
                              355.86   371.26   403.34   438.27   453.25
                              547.78   590.72   599.99   612.11   664.26
                              714.65   794.40   862.95  1080.16  1171.60
                             1223.32  1282.52  1331.14  1335.79  1345.36
                             1358.46  1380.56  1390.35  1470.20  1484.10
                             1512.57  1519.63  1608.05  1645.10  1673.31
                             1700.55  1714.09  1780.64  1828.61  1878.69
                             1906.58  1918.59  1948.46  1958.93  1965.46
                             1978.89  2004.17  2014.66  2018.94  2029.07
                             2047.12  2104.66  2124.19  2142.80  2149.57
                             2152.46  2160.91  2166.68  2168.31  2178.77
                             4296.12  4315.79  4334.76  4335.19  4342.33
                             4344.23  4355.55  4370.23  4405.56  4419.80
                             4430.23  4435.87  4441.90  4445.82  4451.07
                             4467.02  4496.31  4645.88  5242.75

 Zero-point correction=                           0.265587 (Hartree/Particle)
 Thermal correction to Energy=                    0.280503
 Thermal correction to Enthalpy=                  0.281447
 Thermal correction to Gibbs Free Energy=         0.222617
 Sum of electronic and zero-point Energies=           -504.574442
 Sum of electronic and thermal Energies=              -504.559527
 Sum of electronic and thermal Enthalpies=            -504.558583
 Sum of electronic and thermal Free Energies=         -504.617413

                     E (Thermal)             CV                S
                      KCal/Mol        Cal/Mol-Kelvin    Cal/Mol-Kelvin
 Total                  176.018             54.165            123.818
 Electronic               0.000              0.000              1.377
 Translational            0.889              2.981             41.103
 Rotational               0.889              2.981             31.182
 Vibrational            174.241             48.203             50.155
 Vibration     1          0.593              1.985              6.195
 Vibration     2          0.594              1.982              5.339
 Vibration     3          0.596              1.975              4.594
 Vibration     4          0.601              1.958              3.704
 Vibration     5          0.609              1.934              3.119
 Vibration     6          0.616              1.909              2.753
 Vibration     7          0.631              1.862              2.293
 Vibration     8          0.642              1.827              2.052
 Vibration     9          0.649              1.805              1.927
 Vibration    10          0.651              1.797              1.889
 Vibration    11          0.661              1.767              1.749
 Vibration    12          0.667              1.749              1.675
 Vibration    13          0.680              1.710              1.532
 Vibration    14          0.696              1.665              1.391
 Vibration    15          0.702              1.645              1.336
 Vibration    16          0.750              1.511              1.036
 Vibration    17          0.775              1.447              0.925
 Vibration    18          0.780              1.433              0.902
 Vibration    19          0.787              1.415              0.874
 Vibration    20          0.819              1.335              0.761
 Vibration    21          0.852              1.257              0.666
 Vibration    22          0.907              1.135              0.540
 Vibration    23          0.958              1.032              0.450

 Optimization completed.
    -- Stationary point found.
 Normal termination of Gaussian 09 at Sat Apr  5 23:38:08 2014.

 -----------------------------------------------------------
 #P Geom=AllCheck Guess=TCheck SCRF=Check CCSD(T)/6-31+G(d')
 -----------------------------------------------------------

 Structure from the checkpoint file:  C9H18OOH_3_26_a.chk
 --------------------------------------------
 C9H18OOH_3_26_a using cbs-qb3 to cal. energy
 --------------------------------------------
 Charge =  0 Multiplicity = 2

 SCF Done:  E(UHF) =  -501.440979806     A.U. after   19 cycles
 E2 =    -0.1572363188D+01 EUMP2 =    -0.50301334299389D+03
 CCSD(T)
 CCSD(T)= -0.50318468117D+03
 3.1034271\MP4SDQ=-503.1284127\CCSD=-503.1307653\CCSD(T)=-503.1846812\S
 Normal termination of Gaussian 09 at Sun Apr  6 08:17:45 2014.

 -----------------------------------------------------
 #P Geom=AllCheck Guess=TCheck SCRF=Check MP4SDQ/CBSB4
 -----------------------------------------------------

 Structure from the checkpoint file:  C9H18OOH_3_26_a.chk
 --------------------------------------------
 C9H18OOH_3_26_a using cbs-qb3 to cal. energy
 --------------------------------------------
 Charge =  0 Multiplicity = 2

 SCF Done:  E(UHF) =  -501.472825029     A.U. after   18 cycles
 E2 =    -0.1697719276D+01 EUMP2 =    -0.50317054430459D+03
 Normal termination of Gaussian 09 at Sun Apr  6 08:40:35 2014.

 ----------------------------------------------------------------------
 #P Geom=AllCheck Guess=TCheck SCRF=Check MP2/CBSB3 CBSExtrap=(NMin=10,
 MinPop)
 ----------------------------------------------------------------------

 Structure from the checkpoint file:  C9H18OOH_3_26_a.chk
 --------------------------------------------
 C9H18OOH_3_26_a using cbs-qb3 to cal. energy
 --------------------------------------------
 Charge =  0 Multiplicity = 2

                         Standard orientation:
 ---------------------------------------------------------------------
 Center     Atomic      Atomic             Coordinates (Angstroms)
 Number     Number       Type             X           Y           Z
 ---------------------------------------------------------------------
      1          6           0        3.564520    0.166312   -0.222775
      2          1           0        4.109390    0.154832    0.715296
      3          1           0        4.065091   -0.215291   -1.104875
      4          6           0        2.224804    0.824766   -0.311364
      5          1           0        2.039871    1.081149   -1.361619
      6          6           0       -0.322577    0.387618   -0.368534
      7          1           0       -0.356982    0.251103   -1.456572
      8          1           0       -0.393544    1.462164   -0.185886
      9          6           0       -1.498102   -0.349143    0.285628
     10          1           0       -1.514441   -0.123465    1.360680
     11          1           0       -1.318018   -1.424213    0.196845
     12          6           0       -2.879357   -0.024007   -0.312772
     13          1           0       -2.827079   -0.224471   -1.391805
     14          6           0       -3.949799   -0.949403    0.282230
     15          1           0       -4.045045   -0.792180    1.362293
     16          1           0       -4.929688   -0.763669   -0.167257
     17          1           0       -3.699414   -2.001629    0.120437
     18          6           0       -3.274336    1.448079   -0.125320
     19          1           0       -4.264156    1.643904   -0.547798
     20          1           0       -3.311638    1.707544    0.938782
     21          1           0       -2.571797    2.130064   -0.611240
     22          6           0        1.042748   -0.109402    0.118072
     23          1           0        1.049206   -0.222466    1.207888
     24          8           0        1.168768   -1.418362   -0.453848
     25          8           0        2.037286   -2.219576    0.377466
     26          1           0        2.910978   -1.967946    0.031701
     27          6           0        2.216190    2.117409    0.531306
     28          1           0        1.265806    2.650459    0.457713
     29          1           0        2.393312    1.887898    1.586849
     30          1           0        3.005166    2.796336    0.200791
 ---------------------------------------------------------------------

 SCF Done:  E(UHF) =  -501.610274979     A.U. after   17 cycles
 E2 =    -0.2001029803D+01 EUMP2 =    -0.50361130478198D+03
 E2(CBS)=      -2.194928 CBS-Int=       0.065588 OIii=      17.365376

 The electronic state is 2-A.
 Alpha  occ. eigenvalues --  -20.61445 -20.61278 -11.28512 -11.24239 -11.24061
 Alpha  occ. eigenvalues --  -11.22467 -11.22254 -11.22184 -11.21166 -11.20866
 Alpha  occ. eigenvalues --  -11.20595  -1.46658  -1.22441  -1.09658  -1.08496
 Alpha  occ. eigenvalues --   -1.01183  -0.94367  -0.92582  -0.91004  -0.82998
 Alpha  occ. eigenvalues --   -0.78518  -0.76153  -0.72004  -0.66841  -0.64174
 Alpha  occ. eigenvalues --   -0.63283  -0.62042  -0.60782  -0.58395  -0.57688
 Alpha  occ. eigenvalues --   -0.57175  -0.55375  -0.54531  -0.53166  -0.52510
 Alpha  occ. eigenvalues --   -0.50511  -0.50126  -0.48917  -0.48297  -0.47820
 Alpha  occ. eigenvalues --   -0.45882  -0.45574  -0.44969  -0.44214  -0.35930
 Alpha virt. eigenvalues --    0.03751   0.04573   0.05053   0.05153   0.06313
 Alpha virt. eigenvalues --    0.06442   0.06737   0.07620   0.07790   0.08705
 Alpha virt. eigenvalues --    0.08851   0.09330   0.09560   0.09779   0.11674

  Beta  occ. eigenvalues --  -20.61328 -20.61270 -11.28286 -11.24395 -11.22346
  Beta  occ. eigenvalues --  -11.22251 -11.22180 -11.21843 -11.21161 -11.20866
  Beta  occ. eigenvalues --  -11.20595  -1.46458  -1.22140  -1.09201  -1.07344
  Beta  occ. eigenvalues --   -1.00679  -0.92580  -0.91369  -0.89121  -0.81649
  Beta  occ. eigenvalues --   -0.77495  -0.75902  -0.71462  -0.66391  -0.63668
  Beta  occ. eigenvalues --   -0.63159  -0.61652  -0.60342  -0.58193  -0.57058
  Beta  occ. eigenvalues --   -0.56877  -0.55262  -0.54217  -0.53133  -0.51921
  Beta  occ. eigenvalues --   -0.50137  -0.49811  -0.48873  -0.48086  -0.47221
  Beta  occ. eigenvalues --   -0.45723  -0.45550  -0.44741  -0.42669
  Beta virt. eigenvalues --    0.03749   0.04610   0.05064   0.05095   0.06126
  Beta virt. eigenvalues --    0.06457   0.06556   0.07464   0.07774   0.08325
  Beta virt. eigenvalues --    0.08786   0.09167   0.09500   0.09742   0.11227

 Mulliken atomic charges:
              1
     1  C   -0.536708
     2  H    0.112597
     3  H    0.111885
     4  C    1.111163
     5  H    0.080483
     6  C   -0.201718
     7  H    0.138127
     8  H   -0.006654
     9  C   -0.633726
    10  H    0.062684
    11  H    0.074807
    12  C    0.974472
    13  H    0.038354
    14  C   -0.408886
    15  H    0.054190
    16  H    0.095022
    17  H    0.060803
    18  C   -0.607102
    19  H    0.086381
    20  H    0.065221
    21  H    0.065103
    22  C   -0.417189
    23  H    0.163849
    24  O   -0.130196
    25  O   -0.233319
    26  H    0.281967
    27  C   -0.652138
    28  H    0.086981
    29  H    0.064115
    30  H    0.099432
 Sum of Mulliken atomic charges =   0.00000

 Dipole moment (field-independent basis, Debye):
    X=              1.0444    Y=              2.3858    Z=             -0.0833  Tot=              2.6057
 Quadrupole moment (field-independent basis, Debye-Ang):
   XX=            -65.2983   YY=            -77.9359   ZZ=            -71.5504
   XY=              1.1250   XZ=             -0.1411   YZ=              0.5992

 Normal termination of Gaussian 09 at Sun Apr  6 09:37:15 2014.
