 Gaussian 09, Revision C.01,
 Gaussian 09:  EM64L-G09RevC.01 23-Sep-2011

 --------------------------
 #p cbs-qb3 opt=calcfc freq
 --------------------------

 (Enter /usr/caen/gaussian-09revc/g09/l101.exe)
 -----------------------------------------
 C9H18O_24_26 using cbs-qb3 to cal. energy
 -----------------------------------------
 Charge =  0 Multiplicity = 1

 SCF Done:  E(RB3LYP) =  -429.124982029     A.U. after   12 cycles
 SCF Done:  E(RB3LYP) =  -429.125006426     A.U. after    9 cycles
 SCF Done:  E(RB3LYP) =  -429.125006244     A.U. after    7 cycles
 Optimization completed.
    -- Stationary point found.
 Normal termination of Gaussian 09 at Tue Mar 11 10:47:23 2014.

 ---------------------------------------------------------
 #P Geom=AllCheck Guess=TCheck SCRF=Check B3LYP/CBSB7 Freq
 ---------------------------------------------------------

 Structure from the checkpoint file:  C9H18O_24_26.chk
 -----------------------------------------
 C9H18O_24_26 using cbs-qb3 to cal. energy
 -----------------------------------------
 Charge =  0 Multiplicity = 1

 SCF Done:  E(RB3LYP) =  -429.125006244     A.U. after    1 cycles

  Exact polarizability: 127.333   1.139  97.094   1.523  -1.111  94.080
 Approx polarizability: 148.695  -0.340 141.742   2.651   0.185 141.146

                     1                      2                      3
                     A                      A                      A
 Frequencies --    39.5138                49.5852                81.5891
 Red. masses --     3.1372                 2.5916                 2.8196
 Frc consts  --     0.0029                 0.0038                 0.0111
 IR Inten    --     0.3148                 0.2571                 0.3344

                     4                      5                      6
                     A                      A                      A
 Frequencies --   161.7169               203.3534               220.4668
 Red. masses --     2.5000                 1.0605                 1.0919
 Frc consts  --     0.0385                 0.0258                 0.0313
 IR Inten    --     0.4263                 0.1589                 0.0311

                     7                      8                      9
                     A                      A                      A
 Frequencies --   233.1139               255.6057               267.1398
 Red. masses --     1.5331                 1.1536                 1.5008
 Frc consts  --     0.0491                 0.0444                 0.0631
 IR Inten    --     0.5801                 0.0166                 0.5666

                    10                     11                     12
                     A                      A                      A
 Frequencies --   268.1912               332.9622               362.0349
 Red. masses --     2.4435                 2.3785                 2.2517
 Frc consts  --     0.1036                 0.1554                 0.1739
 IR Inten    --     0.1437                 1.5491                 0.1668

                    13                     14                     15
                     A                      A                      A
 Frequencies --   397.7706               403.3349               432.2789
 Red. masses --     2.2511                 2.4020                 2.1330
 Frc consts  --     0.2099                 0.2302                 0.2348
 IR Inten    --     1.6176                 1.0375                 0.2742

                    16                     17                     18
                     A                      A                      A
 Frequencies --   457.8215               494.1375               657.2680
 Red. masses --     2.0559                 2.5149                 3.7081
 Frc consts  --     0.2539                 0.3618                 0.9438
 IR Inten    --     1.8155                 7.0100                 3.1375

                    19                     20                     21
                     A                      A                      A
 Frequencies --   798.2294               820.1745               858.2335
 Red. masses --     2.7400                 2.6300                 1.5129
 Frc consts  --     1.0286                 1.0424                 0.6566
 IR Inten    --     3.7789                 1.7539                 0.8120

                    22                     23                     24
                     A                      A                      A
 Frequencies --   874.7695               910.2377               916.3655
 Red. masses --     2.3274                 3.2387                 1.6904
 Frc consts  --     1.0493                 1.5810                 0.8363
 IR Inten    --    24.3798                 6.1283                 0.1829

                    25                     26                     27
                     A                      A                      A
 Frequencies --   930.4343               950.8542               966.5673
 Red. masses --     1.1943                 1.4788                 1.6829
 Frc consts  --     0.6092                 0.7877                 0.9264
 IR Inten    --     0.7983                 2.1576                19.4605

                    28                     29                     30
                     A                      A                      A
 Frequencies --   967.1366               987.0944               997.7456
 Red. masses --     1.5131                 2.2006                 3.1561
 Frc consts  --     0.8339                 1.2633                 1.8512
 IR Inten    --     9.1626                56.9910                45.1153

                    31                     32                     33
                     A                      A                      A
 Frequencies --  1015.8757              1053.7893              1098.8425
 Red. masses --     1.4482                 1.2616                 2.2035
 Frc consts  --     0.8805                 0.8254                 1.5676
 IR Inten    --     0.7642                 4.6531                26.4722

                    34                     35                     36
                     A                      A                      A
 Frequencies --  1137.9609              1177.7056              1190.4757
 Red. masses --     2.0786                 2.2024                 1.7829
 Frc consts  --     1.5859                 1.7998                 1.4887
 IR Inten    --     1.2361                15.8242                 3.1477

                    37                     38                     39
                     A                      A                      A
 Frequencies --  1196.6136              1236.0785              1256.4087
 Red. masses --     2.1087                 1.5455                 1.3697
 Frc consts  --     1.7790                 1.3913                 1.2739
 IR Inten    --     3.5612                 0.2482                 9.1858

                    40                     41                     42
                     A                      A                      A
 Frequencies --  1277.8921              1285.7863              1290.6832
 Red. masses --     2.3504                 1.3862                 1.9202
 Frc consts  --     2.2614                 1.3502                 1.8847
 IR Inten    --    25.7796                 5.1536                28.3674

                    43                     44                     45
                     A                      A                      A
 Frequencies --  1333.4135              1367.8829              1374.2380
 Red. masses --     1.3795                 1.3696                 1.4439
 Frc consts  --     1.4451                 1.5099                 1.6067
 IR Inten    --     4.7580                 1.1468                 2.1842

                    46                     47                     48
                     A                      A                      A
 Frequencies --  1400.7006              1403.3362              1407.1501
 Red. masses --     1.3664                 1.2579                 1.4482
 Frc consts  --     1.5795                 1.4596                 1.6895
 IR Inten    --    18.1705                 7.7008                23.2746

                    49                     50                     51
                     A                      A                      A
 Frequencies --  1414.4027              1423.4238              1475.6957
 Red. masses --     1.2630                 1.2410                 1.0503
 Frc consts  --     1.4887                 1.4815                 1.3475
 IR Inten    --     5.0655                 2.8911                 1.0735

                    52                     53                     54
                     A                      A                      A
 Frequencies --  1479.4169              1483.9176              1489.5083
 Red. masses --     1.0853                 1.0493                 1.0588
 Frc consts  --     1.3995                 1.3614                 1.3840
 IR Inten    --     1.4275                 1.5592                 6.5068

                    55                     56                     57
                     A                      A                      A
 Frequencies --  1492.0648              1496.7329              1497.3242
 Red. masses --     1.0685                 1.0750                 1.0715
 Frc consts  --     1.4015                 1.4189                 1.4154
 IR Inten    --     5.3810                 2.2112                 1.0553

                    58                     59                     60
                     A                      A                      A
 Frequencies --  1505.9079              1507.3194              1512.1532
 Red. masses --     1.0544                 1.0577                 1.0570
 Frc consts  --     1.4089                 1.4158                 1.4240
 IR Inten    --     7.9537                 5.1532                12.7626

                    61                     62                     63
                     A                      A                      A
 Frequencies --  2979.1235              2988.5602              3007.1282
 Red. masses --     1.0844                 1.0813                 1.0600
 Frc consts  --     5.6703                 5.6901                 5.6474
 IR Inten    --    28.1775                18.6621                30.6577

                    64                     65                     66
                     A                      A                      A
 Frequencies --  3014.2671              3020.1726              3020.6957
 Red. masses --     1.0364                 1.0387                 1.0353
 Frc consts  --     5.5480                 5.5822                 5.5658
 IR Inten    --    32.8571                22.6325                24.6716

                    67                     68                     69
                     A                      A                      A
 Frequencies --  3026.9032              3046.6056              3059.2093
 Red. masses --     1.0356                 1.1017                 1.0587
 Frc consts  --     5.5904                 6.0249                 5.8378
 IR Inten    --    23.5166                25.2819                24.6320

                    70                     71                     72
                     A                      A                      A
 Frequencies --  3072.8793              3079.8170              3085.1103
 Red. masses --     1.1006                 1.0999                 1.1017
 Frc consts  --     6.1229                 6.1469                 6.1778
 IR Inten    --     3.6770                83.5771                 9.2532

                    73                     74                     75
                     A                      A                      A
 Frequencies --  3085.1583              3091.2211              3093.0404
 Red. masses --     1.1017                 1.1003                 1.1010
 Frc consts  --     6.1782                 6.1945                 6.2061
 IR Inten    --    31.1419                45.6200                45.4720

                    76                     77                     78
                     A                      A                      A
 Frequencies --  3097.7629              3103.6774              3112.1039
 Red. masses --     1.1028                 1.1023                 1.1085
 Frc consts  --     6.2351                 6.2558                 6.3256
 IR Inten    --    19.7938                31.9230                37.0213

 - Thermochemistry -
 -------------------
 Temperature   298.150 Kelvin.  Pressure   1.00000 Atm.
 Atom     1 has atomic number  6 and mass  12.00000

 Molecular mass:   142.13577 amu.
 Principal axes and moments of inertia in atomic units:
                           1         2         3
     Eigenvalues --   606.937532965.735033073.94591
           X            0.99999   0.00478   0.00073
           Y           -0.00470   0.99647  -0.08377
           Z           -0.00112   0.08377   0.99648
 This molecule is an asymmetric top.
 Rotational symmetry number  1.
 Warning -- assumption of classical behavior for rotation
           may cause significant error
 Rotational temperatures (Kelvin)      0.14271     0.02920     0.02818
 Rotational constants (GHZ):           2.97352     0.60853     0.58711
 Zero-point vibrational energy     667288.1 (Joules/Mol)
                                  159.48569 (Kcal/Mol)
 Warning -- explicit consideration of  17 degrees of freedom as
           vibrations may cause significant error
 Vibrational temperatures:     56.85    71.34   117.39   232.67   292.58
          (Kelvin)            317.20   335.40   367.76   384.35   385.87
                              479.06   520.89   572.30   580.31   621.95
                              658.70   710.95   945.66  1148.47  1180.05
                             1234.81  1258.60  1309.63  1318.44  1338.69
                             1368.07  1390.67  1391.49  1420.21  1435.53
                             1461.62  1516.17  1580.99  1637.27  1694.45
                             1712.83  1721.66  1778.44  1807.69  1838.60
                             1849.96  1857.00  1918.48  1968.08  1977.22
                             2015.29  2019.09  2024.57  2035.01  2047.99
                             2123.19  2128.55  2135.02  2143.07  2146.75
                             2153.46  2154.31  2166.66  2168.69  2175.65
                             4286.29  4299.87  4326.58  4336.85  4345.35
                             4346.10  4355.03  4383.38  4401.51  4421.18
                             4431.16  4438.78  4438.85  4447.57  4450.19
                             4456.98  4465.49  4477.62

 Zero-point correction=                           0.254157 (Hartree/Particle)
 Thermal correction to Energy=                    0.266286
 Thermal correction to Enthalpy=                  0.267230
 Thermal correction to Gibbs Free Energy=         0.216111
 Sum of electronic and zero-point Energies=           -428.870850
 Sum of electronic and thermal Energies=              -428.858720
 Sum of electronic and thermal Enthalpies=            -428.857776
 Sum of electronic and thermal Free Energies=         -428.908895

                     E (Thermal)             CV                S
                      KCal/Mol        Cal/Mol-Kelvin    Cal/Mol-Kelvin
 Total                  167.097             45.586            107.589
 Electronic               0.000              0.000              0.000
 Translational            0.889              2.981             40.766
 Rotational               0.889              2.981             30.093
 Vibrational            165.319             39.625             36.729
 Vibration     1          0.594              1.981              5.283
 Vibration     2          0.595              1.978              4.834
 Vibration     3          0.600              1.962              3.852
 Vibration     4          0.622              1.889              2.530
 Vibration     5          0.639              1.835              2.103
 Vibration     6          0.647              1.810              1.955
 Vibration     7          0.654              1.790              1.855
 Vibration     8          0.666              1.753              1.692
 Vibration     9          0.672              1.733              1.615
 Vibration    10          0.673              1.732              1.608
 Vibration    11          0.715              1.610              1.246
 Vibration    12          0.736              1.550              1.113
 Vibration    13          0.764              1.475              0.971
 Vibration    14          0.769              1.463              0.950
 Vibration    15          0.793              1.400              0.851
 Vibration    16          0.816              1.344              0.772
 Vibration    17          0.850              1.263              0.673

 Optimization completed.
    -- Stationary point found.
 Normal termination of Gaussian 09 at Tue Mar 11 10:52:11 2014.

 -----------------------------------------------------------
 #P Geom=AllCheck Guess=TCheck SCRF=Check CCSD(T)/6-31+G(d')
 -----------------------------------------------------------

 Structure from the checkpoint file:  C9H18O_24_26.chk
 -----------------------------------------
 C9H18O_24_26 using cbs-qb3 to cal. energy
 -----------------------------------------
 Charge =  0 Multiplicity = 1

 SCF Done:  E(RHF) =  -426.135627550     A.U. after   12 cycles
 E2 =    -0.1395844608D+01 EUMP2 =    -0.42753147215808D+03
 CCSD(T)
 CCSD(T)= -0.42768542887D+03
 MP4SDQ=-427.6352185\CCSD=-427.6362294\CCSD(T)=-427.6854289\RMSD=8.042e
 Normal termination of Gaussian 09 at Tue Mar 11 13:12:30 2014.

 -----------------------------------------------------
 #P Geom=AllCheck Guess=TCheck SCRF=Check MP4SDQ/CBSB4
 -----------------------------------------------------

 Structure from the checkpoint file:  C9H18O_24_26.chk
 -----------------------------------------
 C9H18O_24_26 using cbs-qb3 to cal. energy
 -----------------------------------------
 Charge =  0 Multiplicity = 1

 SCF Done:  E(RHF) =  -426.159020446     A.U. after   10 cycles
 E2 =    -0.1513496812D+01 EUMP2 =    -0.42767251725782D+03
 Normal termination of Gaussian 09 at Tue Mar 11 13:20:40 2014.

 ----------------------------------------------------------------------
 #P Geom=AllCheck Guess=TCheck SCRF=Check MP2/CBSB3 CBSExtrap=(NMin=10,
 MinPop)
 ----------------------------------------------------------------------

 Structure from the checkpoint file:  C9H18O_24_26.chk
 -----------------------------------------
 C9H18O_24_26 using cbs-qb3 to cal. energy
 -----------------------------------------
 Charge =  0 Multiplicity = 1

                         Standard orientation:
 ---------------------------------------------------------------------
 Center     Atomic      Atomic             Coordinates (Angstroms)
 Number     Number       Type             X           Y           Z
 ---------------------------------------------------------------------
      1          6           0        2.662751   -0.701261    1.309206
      2          1           0        1.866107   -1.135301    1.916799
      3          1           0        3.235099   -0.003139    1.928440
      4          1           0        3.330285   -1.508582    0.994638
      5          6           0        0.876374    0.941044    0.347854
      6          1           0        0.516593    0.927792    1.378029
      7          1           0        0.996714    1.974578    0.019993
      8          6           0        0.097893    0.002580   -0.599461
      9          1           0       -0.083797    0.448441   -1.587239
     10          6           0       -1.161395   -0.706550   -0.122202
     11          1           0       -1.043964   -0.985207    0.932891
     12          1           0       -1.217175   -1.646375   -0.683938
     13          6           0       -2.475449    0.071762   -0.318132
     14          1           0       -2.552746    0.321259   -1.385337
     15          6           0       -3.678766   -0.810602    0.041734
     16          1           0       -3.654028   -1.091545    1.100234
     17          1           0       -4.621772   -0.286803   -0.140149
     18          1           0       -3.687595   -1.732422   -0.546841
     19          6           0        3.167475    0.583784   -0.807721
     20          1           0        3.770330    1.322840   -0.270495
     21          1           0        3.828939   -0.213259   -1.158012
     22          1           0        2.727031    1.067739   -1.682801
     23          6           0       -2.513157    1.387517    0.473125
     24          1           0       -3.463775    1.906490    0.319029
     25          1           0       -2.408744    1.200777    1.547620
     26          1           0       -1.713957    2.070288    0.174126
     27          6           0        2.083082    0.004036    0.092869
     28          8           0        1.227951   -0.908929   -0.670077
 ---------------------------------------------------------------------

 SCF Done:  E(RHF) =  -426.270161611     A.U. after   12 cycles
 E2 =    -0.1772288519D+01 EUMP2 =    -0.42804245013020D+03
 E2(CBS)=      -1.940965 CBS-Int=       0.058632 OIii=      15.553323

 The electronic state is 1-A.
 Alpha  occ. eigenvalues --  -20.53485 -11.28316 -11.27471 -11.22773 -11.22092
 Alpha  occ. eigenvalues --  -11.21332 -11.21219 -11.21173 -11.21115 -11.21023
 Alpha  occ. eigenvalues --   -1.36520  -1.09058  -1.05085  -1.00347  -0.93988
 Alpha  occ. eigenvalues --   -0.93628  -0.92762  -0.81753  -0.76675  -0.72443
 Alpha  occ. eigenvalues --   -0.66080  -0.64285  -0.63659  -0.61474  -0.59106
 Alpha  occ. eigenvalues --   -0.57642  -0.57306  -0.55395  -0.53740  -0.53185
 Alpha  occ. eigenvalues --   -0.52515  -0.51912  -0.51222  -0.49598  -0.47781
 Alpha  occ. eigenvalues --   -0.46248  -0.45978  -0.44379  -0.42524  -0.39979
 Alpha virt. eigenvalues --    0.03869   0.04768   0.04987   0.05538   0.06525
 Alpha virt. eigenvalues --    0.06667   0.06886   0.07735   0.07942   0.08809
 Alpha virt. eigenvalues --    0.09167   0.09356   0.09929   0.10327   0.12024

 Mulliken atomic charges:
              1
     1  C   -0.276623
     2  H    0.067304
     3  H    0.061458
     4  H    0.082774
     5  C   -0.596740
     6  H    0.076346
     7  H    0.108001
     8  C    0.413609
     9  H    0.085468
    10  C   -0.714424
    11  H    0.071369
    12  H    0.078896
    13  C    0.761428
    14  H    0.038467
    15  C   -0.429239
    16  H    0.055455
    17  H    0.078703
    18  H    0.060937
    19  C   -0.569345
    20  H    0.053176
    21  H    0.077808
    22  H    0.081799
    23  C   -0.560721
    24  H    0.080283
    25  H    0.075392
    26  H    0.050542
    27  C    1.058117
    28  O   -0.370239
 Sum of Mulliken atomic charges =   0.00000

 Dipole moment (field-independent basis, Debye):
    X=             -0.3071    Y=              1.6845    Z=              0.7794  Tot=              1.8813
 Quadrupole moment (field-independent basis, Debye-Ang):
   XX=            -63.6105   YY=            -67.8256   ZZ=            -65.6153
   XY=              2.2463   XZ=              2.2119   YZ=             -1.7831

 Normal termination of Gaussian 09 at Tue Mar 11 13:47:54 2014.
