 Gaussian 09, Revision C.01,

 --------------------------------------------------
 #p UB3LYP/6-311++G(d,p) guess=mix stable=(opt,xqc)
 --------------------------------------------------

 (Enter /usr/caen/gaussian-09revc/g09/l101.exe)
 --------------------------------------------
 C9H18OOH_2_26_a using cbs-qb3 to cal. energy
 --------------------------------------------
 Charge =  0 Multiplicity = 2

 SCF Done:  E(UB3LYP) =  -504.852697528     A.U. after   17 cycles
 Normal termination of Gaussian 09 at Mon Feb 10 17:20:03 2014.
 Gaussian 09:  EM64L-G09RevC.01 23-Sep-2011

 ------------------------------------------------
 #p cbs-qb3 opt=calcfc freq geom=check guess=read
 ------------------------------------------------

 ---------------------
 optimization and freq
 ---------------------
 Structure from the checkpoint file:  C9H18OOH_2_26_g.chk
 Charge =  0 Multiplicity = 2

 SCF Done:  E(UB3LYP) =  -504.843944815     A.U. after   11 cycles
 SCF Done:  E(UB3LYP) =  -504.844067035     A.U. after   12 cycles
 SCF Done:  E(UB3LYP) =  -504.844070606     A.U. after   10 cycles
 SCF Done:  E(UB3LYP) =  -504.844070987     A.U. after    8 cycles
 SCF Done:  E(UB3LYP) =  -504.844070978     A.U. after    7 cycles
 Optimization completed on the basis of negligible forces.
    -- Stationary point found.
 Normal termination of Gaussian 09 at Mon Feb 10 17:45:25 2014.

 ---------------------------------------------------------
 #P Geom=AllCheck Guess=TCheck SCRF=Check B3LYP/CBSB7 Freq
 ---------------------------------------------------------

 Structure from the checkpoint file:  C9H18OOH_2_26_g.chk
 ---------------------
 optimization and freq
 ---------------------
 Charge =  0 Multiplicity = 2

 SCF Done:  E(UB3LYP) =  -504.844070978     A.U. after    1 cycles

  Exact polarizability: 129.482  -0.261 111.784   0.896  -1.872  98.705
 Approx polarizability: 148.191  -2.767 164.275  -1.761  -0.087 148.395

                     1                      2                      3
                     A                      A                      A
 Frequencies --    31.4263                47.7153                68.1997
 Red. masses --     2.8517                 3.4021                 1.1153
 Frc consts  --     0.0017                 0.0046                 0.0031
 IR Inten    --     0.2829                 0.5196                 1.9063

                     4                      5                      6
                     A                      A                      A
 Frequencies --    89.0612                97.2107               130.1609
 Red. masses --     3.3985                 2.5510                 1.9451
 Frc consts  --     0.0159                 0.0142                 0.0194
 IR Inten    --     0.6322                 0.7759                 0.0626

                     7                      8                      9
                     A                      A                      A
 Frequencies --   173.6295               196.0263               209.3126
 Red. masses --     2.6800                 1.1656                 2.4199
 Frc consts  --     0.0476                 0.0264                 0.0625
 IR Inten    --     3.7055                 0.8778                13.2290

                    10                     11                     12
                     A                      A                      A
 Frequencies --   228.0841               240.7503               249.9188
 Red. masses --     1.3336                 1.7693                 1.1701
 Frc consts  --     0.0409                 0.0604                 0.0431
 IR Inten    --    22.5805                28.1278                 1.6778

                    13                     14                     15
                     A                      A                      A
 Frequencies --   263.9969               281.4703               341.2819
 Red. masses --     1.1951                 2.6382                 2.4542
 Frc consts  --     0.0491                 0.1231                 0.1684
 IR Inten    --    57.5857                 2.4089                 3.7035

                    16                     17                     18
                     A                      A                      A
 Frequencies --   350.9522               370.6638               390.7682
 Red. masses --     2.1572                 2.2472                 2.3820
 Frc consts  --     0.1565                 0.1819                 0.2143
 IR Inten    --     8.1766                 1.9774                 2.6019

                    19                     20                     21
                     A                      A                      A
 Frequencies --   432.7990               458.8816               526.2729
 Red. masses --     2.1506                 2.4225                 3.3262
 Frc consts  --     0.2373                 0.3005                 0.5428
 IR Inten    --     3.3380                16.5127                 3.9328

                    22                     23                     24
                     A                      A                      A
 Frequencies --   540.2868               552.4527               749.4011
 Red. masses --     2.1303                 3.0181                 1.1481
 Frc consts  --     0.3664                 0.5427                 0.3799
 IR Inten    --    23.1465                11.8835                 3.8346

                    25                     26                     27
                     A                      A                      A
 Frequencies --   761.0433               827.8324               840.4547
 Red. masses --     3.8524                 2.1249                 1.8824
 Frc consts  --     1.3146                 0.8580                 0.7834
 IR Inten    --     1.5681                 5.3774                 0.7027

                    28                     29                     30
                     A                      A                      A
 Frequencies --   872.6236               915.3527               920.5410
 Red. masses --     2.3046                 1.2807                 4.0522
 Frc consts  --     1.0340                 0.6322                 2.0231
 IR Inten    --     8.0390                 1.0270                 4.5307

                    31                     32                     33
                     A                      A                      A
 Frequencies --   929.2137               939.8306               948.1596
 Red. masses --     1.8713                 1.6817                 1.8908
 Frc consts  --     0.9520                 0.8752                 1.0015
 IR Inten    --     0.9316                 1.2003                 0.7518

                    34                     35                     36
                     A                      A                      A
 Frequencies --   996.6946              1015.3837              1045.0555
 Red. masses --     1.5232                 1.5569                 2.7851
 Frc consts  --     0.8915                 0.9457                 1.7922
 IR Inten    --     0.4519                 0.4139                 0.3385

                    37                     38                     39
                     A                      A                      A
 Frequencies --  1057.4778              1073.9606              1113.4375
 Red. masses --     2.2301                 2.0182                 1.5430
 Frc consts  --     1.4693                 1.3715                 1.1270
 IR Inten    --     0.8038                 2.7650                 5.5699

                    40                     41                     42
                     A                      A                      A
 Frequencies --  1137.8964              1195.1948              1202.8665
 Red. masses --     2.0435                 2.1091                 2.0929
 Frc consts  --     1.5589                 1.7751                 1.7842
 IR Inten    --     1.2593                 7.9191                12.4727

                    43                     44                     45
                     A                      A                      A
 Frequencies --  1231.6537              1264.5939              1280.5320
 Red. masses --     1.7908                 2.1519                 1.4604
 Frc consts  --     1.6006                 2.0275                 1.4109
 IR Inten    --    19.5016                19.3269                 2.4271

                    46                     47                     48
                     A                      A                      A
 Frequencies --  1310.5733              1332.2978              1345.6410
 Red. masses --     1.3613                 1.1719                 1.1669
 Frc consts  --     1.3777                 1.2256                 1.2450
 IR Inten    --     5.4990                 2.1853                16.9785

                    49                     50                     51
                     A                      A                      A
 Frequencies --  1356.4742              1359.1330              1375.8457
 Red. masses --     1.2601                 1.2202                 1.4060
 Frc consts  --     1.3661                 1.3280                 1.5681
 IR Inten    --    17.5683                28.1347                 1.6972

                    52                     53                     54
                     A                      A                      A
 Frequencies --  1394.6928              1397.4650              1406.6296
 Red. masses --     1.3052                 1.4629                 1.2437
 Frc consts  --     1.4958                 1.6833                 1.4498
 IR Inten    --    19.1521                 3.3977                 2.4416

                    55                     56                     57
                     A                      A                      A
 Frequencies --  1415.9732              1461.8730              1474.3098
 Red. masses --     1.2786                 1.1777                 1.0659
 Frc consts  --     1.5104                 1.4829                 1.3650
 IR Inten    --     8.2409                 1.7035                 1.3734

                    58                     59                     60
                     A                      A                      A
 Frequencies --  1483.7661              1487.5878              1492.5994
 Red. masses --     1.0819                 1.0654                 1.0503
 Frc consts  --     1.4033                 1.3891                 1.3787
 IR Inten    --     0.2387                 1.7745                 3.6388

                    61                     62                     63
                     A                      A                      A
 Frequencies --  1497.1047              1498.2533              1502.8976
 Red. masses --     1.0542                 1.0503                 1.0584
 Frc consts  --     1.3921                 1.3891                 1.4085
 IR Inten    --     0.3693                 7.5293                 4.2264

                    64                     65                     66
                     A                      A                      A
 Frequencies --  1509.6203              1517.8220              2992.8809
 Red. masses --     1.0954                 1.0548                 1.0602
 Frc consts  --     1.4708                 1.4317                 5.5952
 IR Inten    --     3.8319                 9.6017                14.0517

                    67                     68                     69
                     A                      A                      A
 Frequencies --  3003.8065              3016.1340              3018.1381
 Red. masses --     1.0808                 1.0623                 1.0361
 Frc consts  --     5.7459                 5.6939                 5.5608
 IR Inten    --    13.2720                10.4314                39.4597

                    70                     71                     72
                     A                      A                      A
 Frequencies --  3027.7560              3029.2837              3032.8615
 Red. masses --     1.0827                 1.0775                 1.0373
 Frc consts  --     5.8481                 5.8259                 5.6214
 IR Inten    --    27.4166                21.1073                26.8954

                    73                     74                     75
                     A                      A                      A
 Frequencies --  3042.5614              3056.7797              3076.7568
 Red. masses --     1.0363                 1.0954                 1.1035
 Frc consts  --     5.6520                 6.0303                 6.1546
 IR Inten    --    15.6917                 6.4635                18.8766

                    76                     77                     78
                     A                      A                      A
 Frequencies --  3080.1695              3092.0041              3096.5752
 Red. masses --     1.1014                 1.1016                 1.1020
 Frc consts  --     6.1565                 6.2053                 6.2257
 IR Inten    --    71.9042                35.2510                14.5464

                    79                     80                     81
                     A                      A                      A
 Frequencies --  3108.3950              3112.5041              3122.3785
 Red. masses --     1.1020                 1.1011                 1.1011
 Frc consts  --     6.2734                 6.2850                 6.3248
 IR Inten    --    40.1604                22.7986                20.6322

                    82                     83                     84
                     A                      A                      A
 Frequencies --  3125.3124              3230.7370              3780.1062
 Red. masses --     1.0518                 1.1172                 1.0688
 Frc consts  --     6.0527                 6.8702                 8.9984
 IR Inten    --    17.1143                14.9660                40.2021

 - Thermochemistry -
 -------------------
 Temperature   298.150 Kelvin.  Pressure   1.00000 Atm.
 Atom     1 has atomic number  6 and mass  12.00000

 Molecular mass:   159.13850 amu.
 Principal axes and moments of inertia in atomic units:
                           1         2         3
     Eigenvalues --   896.538024152.442254419.06395
           X            0.99991   0.01170   0.00605
           Y           -0.01134   0.99835  -0.05636
           Z           -0.00670   0.05629   0.99839
 This molecule is an asymmetric top.
 Rotational symmetry number  1.
 Warning -- assumption of classical behavior for rotation
           may cause significant error
 Rotational temperatures (Kelvin)      0.09661     0.02086     0.01960
 Rotational constants (GHZ):           2.01301     0.43462     0.40840
 Zero-point vibrational energy     695366.6 (Joules/Mol)
                                  166.19661 (Kcal/Mol)
 Warning -- explicit consideration of  23 degrees of freedom as
           vibrations may cause significant error
 Vibrational temperatures:     45.22    68.65    98.12   128.14   139.86
          (Kelvin)            187.27   249.81   282.04   301.15   328.16
                              346.39   359.58   379.83   404.97   491.03
                              504.94   533.30   562.23   622.70   660.23
                              757.19   777.35   794.86  1078.22  1094.97
                             1191.06  1209.23  1255.51  1316.99  1324.45
                             1336.93  1352.20  1364.19  1434.02  1460.91
                             1503.60  1521.47  1545.19  1601.99  1637.18
                             1719.62  1730.65  1772.07  1819.47  1842.40
                             1885.62  1916.88  1936.07  1951.66  1955.49
                             1979.53  2006.65  2010.64  2023.82  2037.27
                             2103.31  2121.20  2134.81  2140.30  2147.51
                             2154.00  2155.65  2162.33  2172.00  2183.80
                             4306.08  4321.80  4339.54  4342.42  4356.26
                             4358.46  4363.61  4377.56  4398.02  4426.76
                             4431.67  4448.70  4455.28  4472.28  4478.19
                             4492.40  4496.62  4648.30  5438.72

 Zero-point correction=                           0.264851 (Hartree/Particle)
 Thermal correction to Energy=                    0.280052
 Thermal correction to Enthalpy=                  0.280996
 Thermal correction to Gibbs Free Energy=         0.221958
 Sum of electronic and zero-point Energies=           -504.579220
 Sum of electronic and thermal Energies=              -504.564019
 Sum of electronic and thermal Enthalpies=            -504.563074
 Sum of electronic and thermal Free Energies=         -504.622113

                     E (Thermal)             CV                S
                      KCal/Mol        Cal/Mol-Kelvin    Cal/Mol-Kelvin
 Total                  175.735             55.042            124.257
 Electronic               0.000              0.000              1.377
 Translational            0.889              2.981             41.103
 Rotational               0.889              2.981             31.176
 Vibrational            173.958             49.080             50.600
 Vibration     1          0.594              1.983              5.737
 Vibration     2          0.595              1.978              4.910
 Vibration     3          0.598              1.969              4.205
 Vibration     4          0.602              1.957              3.681
 Vibration     5          0.603              1.951              3.509
 Vibration     6          0.612              1.923              2.944
 Vibration     7          0.627              1.875              2.396
 Vibration     8          0.636              1.845              2.170
 Vibration     9          0.642              1.827              2.050
 Vibration    10          0.651              1.798              1.894
 Vibration    11          0.658              1.778              1.797
 Vibration    12          0.663              1.763              1.731
 Vibration    13          0.671              1.739              1.635
 Vibration    14          0.681              1.708              1.525
 Vibration    15          0.721              1.593              1.206
 Vibration    16          0.728              1.573              1.162
 Vibration    17          0.743              1.532              1.077
 Vibration    18          0.758              1.490              0.997
 Vibration    19          0.794              1.399              0.850
 Vibration    20          0.817              1.341              0.769
 Vibration    21          0.881              1.192              0.596
 Vibration    22          0.895              1.161              0.565
 Vibration    23          0.908              1.134              0.539

 Optimization completed on the basis of negligible forces.
    -- Stationary point found.
 Normal termination of Gaussian 09 at Mon Feb 10 17:59:20 2014.

 -----------------------------------------------------------
 #P Geom=AllCheck Guess=TCheck SCRF=Check CCSD(T)/6-31+G(d')
 -----------------------------------------------------------

 Structure from the checkpoint file:  C9H18OOH_2_26_g.chk
 ---------------------
 optimization and freq
 ---------------------
 Charge =  0 Multiplicity = 2

 SCF Done:  E(UHF) =  -501.448539241     A.U. after   16 cycles
 E2 =    -0.1573091853D+01 EUMP2 =    -0.50302163109453D+03
 CCSD(T)
 CCSD(T)= -0.50319247402D+03
 03.1363455\CCSD=-503.13858\CCSD(T)=-503.192474\S2=0.763218\S2-1=0.7536
 Normal termination of Gaussian 09 at Tue Feb 11 04:18:43 2014.

 -----------------------------------------------------
 #P Geom=AllCheck Guess=TCheck SCRF=Check MP4SDQ/CBSB4
 -----------------------------------------------------

 Structure from the checkpoint file:  C9H18OOH_2_26_g.chk
 ---------------------
 optimization and freq
 ---------------------
 Charge =  0 Multiplicity = 2

 SCF Done:  E(UHF) =  -501.480548835     A.U. after   13 cycles
 E2 =    -0.1698007427D+01 EUMP2 =    -0.50317855626187D+03
 Normal termination of Gaussian 09 at Tue Feb 11 04:51:45 2014.

 ----------------------------------------------------------------------
 #P Geom=AllCheck Guess=TCheck SCRF=Check MP2/CBSB3 CBSExtrap=(NMin=10,
 MinPop)
 ----------------------------------------------------------------------

 Structure from the checkpoint file:  C9H18OOH_2_26_g.chk
 ---------------------
 optimization and freq
 ---------------------
 Charge =  0 Multiplicity = 2

                         Standard orientation:
 ---------------------------------------------------------------------
 Center     Atomic      Atomic             Coordinates (Angstroms)
 Number     Number       Type             X           Y           Z
 ---------------------------------------------------------------------
      1          6           0        3.226958    0.036044    1.131579
      2          1           0        3.199166   -1.009507    1.442970
      3          1           0        3.153743    0.658303    2.027187
      4          1           0        4.189711    0.236635    0.653519
      5          6           0        0.718786    0.011288    0.811945
      6          1           0        0.757236   -1.032525    1.137599
      7          1           0        0.621099    0.618120    1.720385
      8          6           0       -0.508453    0.210159   -0.084289
      9          1           0       -0.345932   -0.319839   -1.028395
     10          1           0       -0.628272    1.269073   -0.334695
     11          6           0       -1.796882   -0.296661    0.572031
     12          1           0       -1.965718    0.231519    1.519781
     13          1           0       -1.679589   -1.357915    0.825174
     14          6           0       -3.066885   -0.146934   -0.311022
     15          1           0       -2.862090   -0.669380   -1.254226
     16          6           0       -4.266001   -0.835108    0.369324
     17          1           0       -4.501519   -0.348561    1.321725
     18          1           0       -5.158185   -0.786722   -0.259762
     19          1           0       -4.049652   -1.887662    0.575182
     20          6           0        2.163384    1.785471   -0.341530
     21          1           0        1.984563    2.479284    0.483522
     22          1           0        3.153968    1.986000   -0.755359
     23          1           0        1.423543    1.972542   -1.120471
     24          6           0       -3.375525    1.282861   -0.619909
     25          1           0       -3.830072    1.914884    0.136618
     26          1           0       -3.084759    1.745262   -1.554713
     27          6           0        2.078144    0.342727    0.165969
     28          8           0        2.251740   -0.409113   -1.065227
     29          8           0        2.183573   -1.834645   -0.778098
     30          1           0        3.099090   -2.088524   -0.954039
 ---------------------------------------------------------------------

 SCF Done:  E(UHF) =  -501.617275267     A.U. after   14 cycles
 E2 =    -0.2001164996D+01 EUMP2 =    -0.50361844026268D+03
 E2(CBS)=      -2.194746 CBS-Int=       0.065552 OIii=      17.364601

 The electronic state is 2-A.
 Alpha  occ. eigenvalues --  -20.61651 -20.61418 -11.29063 -11.22277 -11.22133
 Alpha  occ. eigenvalues --  -11.21633 -11.21623 -11.21435 -11.21308 -11.20789
 Alpha  occ. eigenvalues --  -11.20781  -1.46182  -1.22715  -1.09624  -1.06167
 Alpha  occ. eigenvalues --   -1.01004  -0.94300  -0.92520  -0.91974  -0.82330
 Alpha  occ. eigenvalues --   -0.76064  -0.75613  -0.70791  -0.66018  -0.63838
 Alpha  occ. eigenvalues --   -0.63644  -0.61641  -0.60521  -0.57819  -0.57567
 Alpha  occ. eigenvalues --   -0.55426  -0.54770  -0.53553  -0.53145  -0.52961
 Alpha  occ. eigenvalues --   -0.51162  -0.50357  -0.49180  -0.47884  -0.46646
 Alpha  occ. eigenvalues --   -0.46311  -0.45850  -0.44663  -0.42743  -0.34328
 Alpha virt. eigenvalues --    0.03904   0.04693   0.05138   0.05462   0.06482
 Alpha virt. eigenvalues --    0.06647   0.06750   0.07405   0.07839   0.08351
 Alpha virt. eigenvalues --    0.08672   0.09178   0.09593   0.10247   0.11394

  Beta  occ. eigenvalues --  -20.61651 -20.61418 -11.29062 -11.22587 -11.21633
  Beta  occ. eigenvalues --  -11.21623 -11.21437 -11.21084 -11.20785 -11.20661
  Beta  occ. eigenvalues --  -11.19748  -1.46182  -1.22715  -1.08738  -1.05695
  Beta  occ. eigenvalues --   -1.00498  -0.94299  -0.91743  -0.87391  -0.81558
  Beta  occ. eigenvalues --   -0.75722  -0.74409  -0.70771  -0.65904  -0.63645
  Beta  occ. eigenvalues --   -0.63332  -0.61542  -0.60093  -0.57572  -0.56723
  Beta  occ. eigenvalues --   -0.54845  -0.54715  -0.53451  -0.53111  -0.52318
  Beta  occ. eigenvalues --   -0.51087  -0.50094  -0.49009  -0.47342  -0.46283
  Beta  occ. eigenvalues --   -0.45771  -0.45645  -0.44506  -0.42249
  Beta virt. eigenvalues --    0.03911   0.04719   0.05095   0.05467   0.06398
  Beta virt. eigenvalues --    0.06616   0.06671   0.07413   0.07844   0.08278
  Beta virt. eigenvalues --    0.08617   0.09121   0.09500   0.09959   0.11157

 Mulliken atomic charges:
              1
     1  C   -0.087554
     2  H    0.090327
     3  H    0.067270
     4  H    0.109087
     5  C   -0.071015
     6  H    0.080005
     7  H    0.085423
     8  C   -0.195558
     9  H    0.084458
    10  H    0.043366
    11  C   -0.803052
    12  H    0.077683
    13  H    0.041807
    14  C    1.078865
    15  H    0.062903
    16  C   -0.464620
    17  H    0.056250
    18  H    0.109465
    19  H    0.058365
    20  C   -0.649834
    21  H    0.061720
    22  H    0.106779
    23  H    0.115702
    24  C   -0.630522
    25  H    0.089830
    26  H    0.074247
    27  C    0.510670
    28  O   -0.129020
    29  O   -0.246298
    30  H    0.273251
 Sum of Mulliken atomic charges =   0.00000

 Dipole moment (field-independent basis, Debye):
    X=              1.3906    Y=              0.4498    Z=              1.2215  Tot=              1.9048
 Quadrupole moment (field-independent basis, Debye-Ang):
   XX=            -66.8976   YY=            -70.1146   ZZ=            -73.0895
   XY=             -1.7859   XZ=              0.9397   YZ=              0.6101

 Normal termination of Gaussian 09 at Tue Feb 11 06:17:31 2014.
