 Gaussian 09, Revision C.01,
 Gaussian 09:  EM64L-G09RevC.01 23-Sep-2011

 --------------------------
 #p cbs-qb3 opt=calcfc freq
 --------------------------

 (Enter /usr/caen/gaussian-09revc/g09/l101.exe)
 -----------------------------------------
 C9H18O_25_26 using cbs-qb3 to cal. energy
 -----------------------------------------
 Charge =  0 Multiplicity = 1

 SCF Done:  E(RB3LYP) =  -429.150025369     A.U. after   12 cycles
 SCF Done:  E(RB3LYP) =  -429.150022038     A.U. after   11 cycles
 SCF Done:  E(RB3LYP) =  -429.150063811     A.U. after   11 cycles
 SCF Done:  E(RB3LYP) =  -429.150115142     A.U. after   10 cycles
 SCF Done:  E(RB3LYP) =  -429.150117015     A.U. after    8 cycles
 SCF Done:  E(RB3LYP) =  -429.150119618     A.U. after    8 cycles
 SCF Done:  E(RB3LYP) =  -429.150120257     A.U. after    7 cycles
 SCF Done:  E(RB3LYP) =  -429.150119334     A.U. after    9 cycles
 SCF Done:  E(RB3LYP) =  -429.150119610     A.U. after    7 cycles
 Optimization completed.
    -- Stationary point found.
 Normal termination of Gaussian 09 at Tue Mar 11 10:56:16 2014.

 ---------------------------------------------------------
 #P Geom=AllCheck Guess=TCheck SCRF=Check B3LYP/CBSB7 Freq
 ---------------------------------------------------------

 Structure from the checkpoint file:  C9H18O_25_26.chk
 -----------------------------------------
 C9H18O_25_26 using cbs-qb3 to cal. energy
 -----------------------------------------
 Charge =  0 Multiplicity = 1

 SCF Done:  E(RB3LYP) =  -429.150119610     A.U. after    1 cycles

  Exact polarizability: 120.600  -1.213 100.890  -0.419   0.180  94.537
 Approx polarizability: 147.566  -0.195 142.033  -0.760   0.649 141.338

                     1                      2                      3
                     A                      A                      A
 Frequencies --    38.0544                76.0254               128.9110
 Red. masses --     2.6694                 2.5546                 2.6513
 Frc consts  --     0.0023                 0.0087                 0.0260
 IR Inten    --     0.5450                 0.0551                 0.4010

                     4                      5                      6
                     A                      A                      A
 Frequencies --   181.8627               220.0999               220.9267
 Red. masses --     2.5344                 1.0335                 1.0380
 Frc consts  --     0.0494                 0.0295                 0.0298
 IR Inten    --     0.6812                 0.0268                 0.0901

                     7                      8                      9
                     A                      A                      A
 Frequencies --   239.8732               251.7612               290.8874
 Red. masses --     1.0767                 1.1519                 2.6518
 Frc consts  --     0.0365                 0.0430                 0.1322
 IR Inten    --     0.1170                 0.2494                 0.0234

                    10                     11                     12
                     A                      A                      A
 Frequencies --   303.2138               353.2555               357.1809
 Red. masses --     2.0489                 2.1784                 2.3544
 Frc consts  --     0.1110                 0.1602                 0.1770
 IR Inten    --     0.9068                 0.1396                 0.4416

                    13                     14                     15
                     A                      A                      A
 Frequencies --   377.2099               445.4456               457.9494
 Red. masses --     2.4174                 2.4828                 2.7032
 Frc consts  --     0.2027                 0.2903                 0.3340
 IR Inten    --     1.1581                 0.6068                 3.2910

                    16                     17                     18
                     A                      A                      A
 Frequencies --   485.9364               600.2209               695.6619
 Red. masses --     2.9081                 3.3332                 3.5393
 Frc consts  --     0.4046                 0.7075                 1.0092
 IR Inten    --     3.4743                 1.2622                 4.5413

                    19                     20                     21
                     A                      A                      A
 Frequencies --   753.2308               799.9510               863.0460
 Red. masses --     1.8837                 2.9038                 2.3949
 Frc consts  --     0.6297                 1.0948                 1.0510
 IR Inten    --     2.6262                 1.7183                10.3729

                    22                     23                     24
                     A                      A                      A
 Frequencies --   892.4910               912.7464               921.7261
 Red. masses --     1.9431                 2.3758                 1.6694
 Frc consts  --     0.9119                 1.1662                 0.8356
 IR Inten    --     8.1183                 6.2951                 5.6847

                    25                     26                     27
                     A                      A                      A
 Frequencies --   935.7606               953.7287               965.5375
 Red. masses --     1.2045                 1.6049                 1.4813
 Frc consts  --     0.6214                 0.8601                 0.8136
 IR Inten    --     0.3604                 7.5654                 3.4557

                    28                     29                     30
                     A                      A                      A
 Frequencies --   975.3487              1000.6895              1020.8914
 Red. masses --     2.0432                 1.6977                 1.3978
 Frc consts  --     1.1452                 1.0016                 0.8583
 IR Inten    --     3.0887                 2.0074                14.3961

                    31                     32                     33
                     A                      A                      A
 Frequencies --  1041.6923              1060.1487              1111.7538
 Red. masses --     2.2267                 4.0914                 1.5222
 Frc consts  --     1.4236                 2.7093                 1.1085
 IR Inten    --     3.2685               112.1312                14.5127

                    34                     35                     36
                     A                      A                      A
 Frequencies --  1144.7765              1170.0152              1188.9016
 Red. masses --     2.0939                 1.9492                 1.8444
 Frc consts  --     1.6168                 1.5722                 1.5360
 IR Inten    --     2.2367                43.5347                14.3315

                    37                     38                     39
                     A                      A                      A
 Frequencies --  1206.2889              1245.2863              1261.6860
 Red. masses --     2.0742                 1.6622                 1.8003
 Frc consts  --     1.7783                 1.5187                 1.6885
 IR Inten    --     7.9147                 2.8461                 6.4859

                    40                     41                     42
                     A                      A                      A
 Frequencies --  1265.2872              1318.8998              1321.3181
 Red. masses --     1.9157                 1.3202                 1.4393
 Frc consts  --     1.8070                 1.3531                 1.4805
 IR Inten    --    27.3811                 1.1965                 8.4963

                    43                     44                     45
                     A                      A                      A
 Frequencies --  1335.6489              1346.0264              1358.9916
 Red. masses --     1.3643                 1.4027                 1.3962
 Frc consts  --     1.4339                 1.4973                 1.5193
 IR Inten    --     8.9724                 2.2623                 0.3881

                    46                     47                     48
                     A                      A                      A
 Frequencies --  1396.9467              1400.0936              1404.9776
 Red. masses --     1.3361                 1.2607                 1.4001
 Frc consts  --     1.5363                 1.4560                 1.6284
 IR Inten    --    10.3715                 7.3509                12.0099

                    49                     50                     51
                     A                      A                      A
 Frequencies --  1415.9719              1421.7942              1477.9224
 Red. masses --     1.2438                 1.2419                 1.0534
 Frc consts  --     1.4693                 1.4791                 1.3556
 IR Inten    --    11.4863                10.5556                 1.0437

                    52                     53                     54
                     A                      A                      A
 Frequencies --  1487.5809              1491.2094              1492.8595
 Red. masses --     1.0550                 1.0483                 1.0456
 Frc consts  --     1.3755                 1.3735                 1.3730
 IR Inten    --     0.2543                 4.3528                 0.2713

                    55                     56                     57
                     A                      A                      A
 Frequencies --  1495.8931              1499.8108              1506.7669
 Red. masses --     1.0635                 1.0672                 1.0520
 Frc consts  --     1.4021                 1.4144                 1.4072
 IR Inten    --     2.9329                 2.3610                 6.0277

                    58                     59                     60
                     A                      A                      A
 Frequencies --  1509.0149              1514.5262              1516.4858
 Red. masses --     1.0662                 1.0748                 1.0668
 Frc consts  --     1.4305                 1.4526                 1.4454
 IR Inten    --     9.5202                 7.4887                 7.1707

                    61                     62                     63
                     A                      A                      A
 Frequencies --  2951.9111              2999.9403              3016.6040
 Red. masses --     1.0824                 1.0833                 1.0386
 Frc consts  --     5.5570                 5.7443                 5.5685
 IR Inten    --    35.6899                18.8988                21.7629

                    64                     65                     66
                     A                      A                      A
 Frequencies --  3022.1732              3027.2638              3032.6805
 Red. masses --     1.0392                 1.0346                 1.0359
 Frc consts  --     5.5925                 5.5865                 5.6133
 IR Inten    --    48.2622                23.3944                13.8096

                    67                     68                     69
                     A                      A                      A
 Frequencies --  3045.1972              3055.2861              3073.5217
 Red. masses --     1.0595                 1.0624                 1.0997
 Frc consts  --     5.7889                 5.8428                 6.1206
 IR Inten    --    36.3771                22.0925                13.5264

                    70                     71                     72
                     A                      A                      A
 Frequencies --  3078.7252              3081.8465              3090.3039
 Red. masses --     1.1028                 1.0996                 1.1013
 Frc consts  --     6.1586                 6.1532                 6.1966
 IR Inten    --     9.5608                53.4999                46.5304

                    73                     74                     75
                     A                      A                      A
 Frequencies --  3091.7656              3096.6540              3099.0392
 Red. masses --     1.1014                 1.1041                 1.1040
 Frc consts  --     6.2033                 6.2377                 6.2468
 IR Inten    --    26.8950                17.9709                24.7388

                    76                     77                     78
                     A                      A                      A
 Frequencies --  3104.1605              3106.8404              3121.8426
 Red. masses --     1.1021                 1.1025                 1.0978
 Frc consts  --     6.2570                 6.2700                 6.3039
 IR Inten    --    50.3125                46.8311                18.2010

 - Thermochemistry -
 -------------------
 Temperature   298.150 Kelvin.  Pressure   1.00000 Atm.
 Atom     1 has atomic number  6 and mass  12.00000

 Molecular mass:   142.13577 amu.
 Principal axes and moments of inertia in atomic units:
                           1         2         3
     Eigenvalues --   773.218662143.929552439.38282
           X            1.00000  -0.00153  -0.00050
           Y            0.00154   0.99996   0.00853
           Z            0.00049  -0.00853   0.99996
 This molecule is an asymmetric top.
 Rotational symmetry number  1.
 Warning -- assumption of classical behavior for rotation
           may cause significant error
 Rotational temperatures (Kelvin)      0.11202     0.04040     0.03551
 Rotational constants (GHZ):           2.33406     0.84179     0.73984
 Zero-point vibrational energy     671248.3 (Joules/Mol)
                                  160.43220 (Kcal/Mol)
 Warning -- explicit consideration of  17 degrees of freedom as
           vibrations may cause significant error
 Vibrational temperatures:     54.75   109.38   185.47   261.66   316.67
          (Kelvin)            317.86   345.12   362.23   418.52   436.26
                              508.26   513.90   542.72   640.90   658.89
                              699.15   863.58  1000.90  1083.73  1150.95
                             1241.73  1284.09  1313.24  1326.16  1346.35
                             1372.20  1389.19  1403.31  1439.77  1468.83
                             1498.76  1525.32  1599.56  1647.08  1683.39
                             1710.56  1735.58  1791.69  1815.28  1820.46
                             1897.60  1901.08  1921.70  1936.63  1955.28
                             2009.89  2014.42  2021.45  2037.27  2045.64
                             2126.40  2140.29  2145.52  2147.89  2152.25
                             2157.89  2167.90  2171.13  2179.06  2181.88
                             4247.14  4316.24  4340.21  4348.23  4355.55
                             4363.35  4381.35  4395.87  4422.11  4429.59
                             4434.08  4446.25  4448.36  4455.39  4458.82
                             4466.19  4470.04  4491.63

 Zero-point correction=                           0.255665 (Hartree/Particle)
 Thermal correction to Energy=                    0.267344
 Thermal correction to Enthalpy=                  0.268289
 Thermal correction to Gibbs Free Energy=         0.218731
 Sum of electronic and zero-point Energies=           -428.894455
 Sum of electronic and thermal Energies=              -428.882775
 Sum of electronic and thermal Enthalpies=            -428.881831
 Sum of electronic and thermal Free Energies=         -428.931388

                     E (Thermal)             CV                S
                      KCal/Mol        Cal/Mol-Kelvin    Cal/Mol-Kelvin
 Total                  167.761             44.801            104.302
 Electronic               0.000              0.000              0.000
 Translational            0.889              2.981             40.766
 Rotational               0.889              2.981             29.782
 Vibrational            165.984             38.840             33.754
 Vibration     1          0.594              1.982              5.358
 Vibration     2          0.599              1.965              3.991
 Vibration     3          0.611              1.924              2.962
 Vibration     4          0.630              1.864              2.309
 Vibration     5          0.647              1.810              1.958
 Vibration     6          0.648              1.809              1.951
 Vibration     7          0.657              1.779              1.804
 Vibration     8          0.664              1.760              1.718
 Vibration     9          0.687              1.691              1.469
 Vibration    10          0.695              1.668              1.399
 Vibration    11          0.729              1.569              1.152
 Vibration    12          0.732              1.561              1.134
 Vibration    13          0.748              1.519              1.050
 Vibration    14          0.805              1.371              0.810
 Vibration    15          0.816              1.343              0.772
 Vibration    16          0.842              1.281              0.694
 Vibration    17          0.958              1.031              0.449

 Optimization completed.
    -- Stationary point found.
 Normal termination of Gaussian 09 at Tue Mar 11 11:02:48 2014.

 -----------------------------------------------------------
 #P Geom=AllCheck Guess=TCheck SCRF=Check CCSD(T)/6-31+G(d')
 -----------------------------------------------------------

 Structure from the checkpoint file:  C9H18O_25_26.chk
 -----------------------------------------
 C9H18O_25_26 using cbs-qb3 to cal. energy
 -----------------------------------------
 Charge =  0 Multiplicity = 1

 SCF Done:  E(RHF) =  -426.162566322     A.U. after   12 cycles
 E2 =    -0.1397641223D+01 EUMP2 =    -0.42756020754568D+03
 CCSD(T)
 CCSD(T)= -0.42771325282D+03
 =-427.662855\CCSD=-427.6638177\CCSD(T)=-427.7132528\RMSD=6.158e-09\PG=
 Normal termination of Gaussian 09 at Tue Mar 11 15:32:07 2014.

 -----------------------------------------------------
 #P Geom=AllCheck Guess=TCheck SCRF=Check MP4SDQ/CBSB4
 -----------------------------------------------------

 Structure from the checkpoint file:  C9H18O_25_26.chk
 -----------------------------------------
 C9H18O_25_26 using cbs-qb3 to cal. energy
 -----------------------------------------
 Charge =  0 Multiplicity = 1

 SCF Done:  E(RHF) =  -426.185698067     A.U. after   10 cycles
 E2 =    -0.1515391505D+01 EUMP2 =    -0.42770108957238D+03
 Normal termination of Gaussian 09 at Tue Mar 11 15:38:06 2014.

 ----------------------------------------------------------------------
 #P Geom=AllCheck Guess=TCheck SCRF=Check MP2/CBSB3 CBSExtrap=(NMin=10,
 MinPop)
 ----------------------------------------------------------------------

 Structure from the checkpoint file:  C9H18O_25_26.chk
 -----------------------------------------
 C9H18O_25_26 using cbs-qb3 to cal. energy
 -----------------------------------------
 Charge =  0 Multiplicity = 1

                         Standard orientation:
 ---------------------------------------------------------------------
 Center     Atomic      Atomic             Coordinates (Angstroms)
 Number     Number       Type             X           Y           Z
 ---------------------------------------------------------------------
      1          6           0        2.244061    0.015453    1.399044
      2          1           0        1.626350    0.669735    2.019950
      3          1           0        3.252714    0.437426    1.367809
      4          1           0        2.292190   -0.962993    1.882824
      5          6           0        1.364644    1.238803   -0.661367
      6          1           0        2.107237    1.996526   -0.401548
      7          1           0        1.366186    1.131574   -1.749051
      8          6           0       -0.050597    1.584627   -0.156820
      9          1           0       -0.660952    2.012476   -0.954743
     10          1           0       -0.024492    2.315461    0.654202
     11          6           0       -0.629614    0.229579    0.337786
     12          1           0       -0.779446    0.265604    1.428063
     13          6           0       -1.952918   -0.198570   -0.310209
     14          1           0       -1.799246   -0.160980   -1.397072
     15          6           0       -2.318678   -1.638109    0.073086
     16          1           0       -2.483889   -1.722162    1.153078
     17          1           0       -3.238602   -1.950746   -0.429693
     18          1           0       -1.520208   -2.328211   -0.199677
     19          6           0        2.550018   -1.028746   -0.876604
     20          1           0        3.541500   -0.586968   -1.008834
     21          1           0        2.669970   -2.008217   -0.407107
     22          1           0        2.095784   -1.173562   -1.859191
     23          6           0       -3.084238    0.770440    0.060768
     24          1           0       -4.018401    0.475244   -0.424449
     25          1           0       -3.260025    0.768464    1.142073
     26          1           0       -2.866545    1.798623   -0.240224
     27          6           0        1.666619   -0.130259   -0.017472
     28          8           0        0.370513   -0.754576    0.041791
 ---------------------------------------------------------------------

 SCF Done:  E(RHF) =  -426.296560856     A.U. after   11 cycles
 E2 =    -0.1775016411D+01 EUMP2 =    -0.42807157726649D+03
 E2(CBS)=      -1.943905 CBS-Int=       0.058551 OIii=      15.565188

 The electronic state is 1-A.
 Alpha  occ. eigenvalues --  -20.53881 -11.27843 -11.26820 -11.22008 -11.21932
 Alpha  occ. eigenvalues --  -11.21775 -11.20978 -11.20949 -11.20755 -11.19866
 Alpha  occ. eigenvalues --   -1.36562  -1.08482  -1.06448  -1.01532  -0.93633
 Alpha  occ. eigenvalues --   -0.92239  -0.90670  -0.82101  -0.76389  -0.74943
 Alpha  occ. eigenvalues --   -0.66642  -0.64314  -0.62846  -0.59830  -0.58952
 Alpha  occ. eigenvalues --   -0.57765  -0.56273  -0.55506  -0.53398  -0.52830
 Alpha  occ. eigenvalues --   -0.52271  -0.51332  -0.50191  -0.48755  -0.47593
 Alpha  occ. eigenvalues --   -0.46606  -0.45309  -0.44573  -0.43937  -0.40205
 Alpha virt. eigenvalues --    0.03977   0.04860   0.05133   0.05426   0.06618
 Alpha virt. eigenvalues --    0.06758   0.07149   0.07401   0.07525   0.09023
 Alpha virt. eigenvalues --    0.09318   0.09588   0.10001   0.10324   0.10925

 Mulliken atomic charges:
              1
     1  C   -0.513465
     2  H    0.067853
     3  H    0.081114
     4  H    0.082438
     5  C   -0.412606
     6  H    0.076464
     7  H    0.096962
     8  C   -0.478067
     9  H    0.064967
    10  H    0.096727
    11  C   -0.070839
    12  H    0.088810
    13  C    0.728668
    14  H    0.049517
    15  C   -0.409947
    16  H    0.053123
    17  H    0.089536
    18  H    0.080052
    19  C   -0.190649
    20  H    0.060993
    21  H    0.084017
    22  H    0.072187
    23  C   -0.531233
    24  H    0.095797
    25  H    0.062912
    26  H    0.044998
    27  C    0.750374
    28  O   -0.220704
 Sum of Mulliken atomic charges =   0.00000

 Dipole moment (field-independent basis, Debye):
    X=              0.4537    Y=              1.4764    Z=              0.0060  Tot=              1.5445
 Quadrupole moment (field-independent basis, Debye-Ang):
   XX=            -63.5528   YY=            -67.0612   ZZ=            -64.8346
   XY=              0.2219   XZ=              0.2685   YZ=              0.1301

 Normal termination of Gaussian 09 at Tue Mar 11 16:19:14 2014.
