 Gaussian 09, Revision C.01,

 --------------------------------------------------
 #p UB3LYP/6-311++G(d,p) guess=mix stable=(opt,xqc)
 --------------------------------------------------

 (Enter /usr/caen/gaussian-09revc/g09/l101.exe)
 --------------------------------------------
 C9H18OOH_3_26_b using cbs-qb3 to cal. energy
 --------------------------------------------
 Charge =  0 Multiplicity = 2

 SCF Done:  E(UB3LYP) =  -504.861549206     A.U. after   19 cycles
 Normal termination of Gaussian 09 at Sun Feb  9 05:05:20 2014.
 Gaussian 09:  EM64L-G09RevC.01 23-Sep-2011

 ------------------------------------------------
 #p cbs-qb3 opt=calcfc freq geom=check guess=read
 ------------------------------------------------

 ---------------------
 optimization and freq
 ---------------------
 Structure from the checkpoint file:  C9H18OOH_3_26_b.chk
 Charge =  0 Multiplicity = 2

 SCF Done:  E(UB3LYP) =  -504.853166490     A.U. after   11 cycles
 SCF Done:  E(UB3LYP) =  -504.853273083     A.U. after   12 cycles
 SCF Done:  E(UB3LYP) =  -504.853273687     A.U. after    8 cycles
 SCF Done:  E(UB3LYP) =  -504.853273680     A.U. after    6 cycles
 Optimization completed.
    -- Stationary point found.
 Normal termination of Gaussian 09 at Sun Feb  9 05:24:46 2014.

 ---------------------------------------------------------
 #P Geom=AllCheck Guess=TCheck SCRF=Check B3LYP/CBSB7 Freq
 ---------------------------------------------------------

 Structure from the checkpoint file:  C9H18OOH_3_26_b.chk
 ---------------------
 optimization and freq
 ---------------------
 Charge =  0 Multiplicity = 2

 SCF Done:  E(UB3LYP) =  -504.853273680     A.U. after    1 cycles

  Exact polarizability: 133.490  -1.811 110.030   0.571  -0.425 100.819
 Approx polarizability: 158.226   2.519 154.338  -1.319  -1.824 151.074

                     1                      2                      3
                     A                      A                      A
 Frequencies --    33.4483                47.0307                67.4122
 Red. masses --     2.6068                 2.8958                 3.0630
 Frc consts  --     0.0017                 0.0038                 0.0082
 IR Inten    --     0.2250                 0.1844                 1.0927

                     4                      5                      6
                     A                      A                      A
 Frequencies --    80.8653                92.5368               118.2504
 Red. masses --     3.4412                 2.2409                 1.4383
 Frc consts  --     0.0133                 0.0113                 0.0118
 IR Inten    --     1.4475                 1.9404                 0.8197

                     7                      8                      9
                     A                      A                      A
 Frequencies --   127.9939               158.5266               192.0378
 Red. masses --     1.6286                 1.2495                 2.1735
 Frc consts  --     0.0157                 0.0185                 0.0472
 IR Inten    --     0.9246                 2.1779                16.9660

                    10                     11                     12
                     A                      A                      A
 Frequencies --   198.6790               225.2257               239.9361
 Red. masses --     1.2069                 1.0858                 2.4900
 Frc consts  --     0.0281                 0.0325                 0.0845
 IR Inten    --    89.7922                 0.2031                 1.8578

                    13                     14                     15
                     A                      A                      A
 Frequencies --   251.6273               256.2079               275.9322
 Red. masses --     1.5275                 1.8609                 3.2321
 Frc consts  --     0.0570                 0.0720                 0.1450
 IR Inten    --     0.7413                 3.1321                19.9424

                    16                     17                     18
                     A                      A                      A
 Frequencies --   348.7674               371.3450               412.6254
 Red. masses --     3.2137                 2.3551                 2.5570
 Frc consts  --     0.2303                 0.1913                 0.2565
 IR Inten    --     3.7126                 1.8765                 0.5771

                    19                     20                     21
                     A                      A                      A
 Frequencies --   424.2093               466.1008               550.9267
 Red. masses --     2.2461                 2.6309                 4.1814
 Frc consts  --     0.2381                 0.3368                 0.7478
 IR Inten    --     0.5405                 0.7277                 2.8342

                    22                     23                     24
                     A                      A                      A
 Frequencies --   560.9941               744.7419               796.5742
 Red. masses --     3.3024                 1.4707                 2.6960
 Frc consts  --     0.6124                 0.4806                 1.0079
 IR Inten    --    11.5012                 0.2086                 3.1978

                    25                     26                     27
                     A                      A                      A
 Frequencies --   830.4265               887.8005               930.2224
 Red. masses --     2.8776                 2.0252                 1.2257
 Frc consts  --     1.1692                 0.9405                 0.6249
 IR Inten    --     2.3835                12.8977                 1.5302

                    28                     29                     30
                     A                      A                      A
 Frequencies --   935.4055               941.6669               950.1535
 Red. masses --     5.8480                 1.2761                 2.0982
 Frc consts  --     3.0148                 0.6667                 1.1161
 IR Inten    --     1.8159                 1.2971                 4.1444

                    31                     32                     33
                     A                      A                      A
 Frequencies --   962.5716               975.6684               993.7279
 Red. masses --     1.4605                 1.3790                 1.7125
 Frc consts  --     0.7973                 0.7734                 0.9964
 IR Inten    --     0.5094                 1.0839                 6.8517

                    34                     35                     36
                     A                      A                      A
 Frequencies --   995.7643              1027.6235              1043.9227
 Red. masses --     3.2374                 1.8234                 1.9901
 Frc consts  --     1.8913                 1.1345                 1.2778
 IR Inten    --    16.9553                11.4073                 5.9509

                    37                     38                     39
                     A                      A                      A
 Frequencies --  1055.2576              1140.2948              1157.2492
 Red. masses --     1.9817                 2.1749                 2.1128
 Frc consts  --     1.3002                 1.6662                 1.6671
 IR Inten    --     0.8612                 0.4009                 7.0287

                    40                     41                     42
                     A                      A                      A
 Frequencies --  1192.0244              1222.5345              1248.7528
 Red. masses --     1.7735                 1.9986                 1.6661
 Frc consts  --     1.4848                 1.7599                 1.5308
 IR Inten    --     6.5049                 6.5504                 2.7122

                    43                     44                     45
                     A                      A                      A
 Frequencies --  1279.8336              1299.2825              1313.6794
 Red. masses --     1.4766                 2.4682                 1.3092
 Frc consts  --     1.4250                 2.4549                 1.3312
 IR Inten    --     4.3987                 0.9742                 0.4717

                    46                     47                     48
                     A                      A                      A
 Frequencies --  1334.4098              1357.6288              1369.4562
 Red. masses --     1.1339                 1.3292                 1.1483
 Frc consts  --     1.1896                 1.4435                 1.2688
 IR Inten    --     1.5197                 3.0548                52.7643

                    49                     50                     51
                     A                      A                      A
 Frequencies --  1371.2546              1384.6458              1395.1175
 Red. masses --     1.2767                 1.3568                 1.3992
 Frc consts  --     1.4144                 1.5327                 1.6045
 IR Inten    --     2.1470                 2.3200                 5.8602

                    52                     53                     54
                     A                      A                      A
 Frequencies --  1401.5132              1402.5955              1416.3176
 Red. masses --     1.3028                 1.3838                 1.2267
 Frc consts  --     1.5078                 1.6039                 1.4498
 IR Inten    --     7.8680                 7.3266                10.1578

                    55                     56                     57
                     A                      A                      A
 Frequencies --  1421.2595              1471.4111              1473.5103
 Red. masses --     1.2378                 1.0643                 1.0625
 Frc consts  --     1.4732                 1.3576                 1.3592
 IR Inten    --     4.6432                 3.4499                 3.3341

                    58                     59                     60
                     A                      A                      A
 Frequencies --  1478.7959              1487.7019              1490.0087
 Red. masses --     1.0569                 1.0525                 1.0554
 Frc consts  --     1.3617                 1.3725                 1.3805
 IR Inten    --     2.9010                10.4023                 0.2855

                    61                     62                     63
                     A                      A                      A
 Frequencies --  1493.7481              1497.2092              1502.5367
 Red. masses --     1.0493                 1.0776                 1.0805
 Frc consts  --     1.3794                 1.4233                 1.4372
 IR Inten    --     1.7317                 6.4561                 1.7020

                    64                     65                     66
                     A                      A                      A
 Frequencies --  1506.9571              1513.1953              2935.7980
 Red. masses --     1.0551                 1.0490                 1.0607
 Frc consts  --     1.4117                 1.4152                 5.3865
 IR Inten    --     3.8254                15.5614                29.9306

                    67                     68                     69
                     A                      A                      A
 Frequencies --  2945.8091              2984.9553              3001.2807
 Red. masses --     1.0606                 1.0799                 1.0701
 Frc consts  --     5.4228                 5.6689                 5.6793
 IR Inten    --    41.5504                 4.9098                20.4467

                    70                     71                     72
                     A                      A                      A
 Frequencies --  3013.1516              3016.6503              3018.6502
 Red. masses --     1.0363                 1.0790                 1.0386
 Frc consts  --     5.5436                 5.7852                 5.5759
 IR Inten    --    28.3738                10.1482                39.9358

                    73                     74                     75
                     A                      A                      A
 Frequencies --  3020.8356              3024.2120              3027.8975
 Red. masses --     1.0752                 1.0698                 1.0665
 Frc consts  --     5.7810                 5.7650                 5.7607
 IR Inten    --    22.2913                37.8644                40.3212

                    76                     77                     78
                     A                      A                      A
 Frequencies --  3057.8829              3071.9367              3076.0638
 Red. masses --     1.0951                 1.1002                 1.0994
 Frc consts  --     6.0332                 6.1172                 6.1292
 IR Inten    --    10.7505                 2.9054                14.2801

                    79                     80                     81
                     A                      A                      A
 Frequencies --  3078.6083              3080.3754              3086.0309
 Red. masses --     1.0987                 1.0993                 1.1010
 Frc consts  --     6.1353                 6.1459                 6.1781
 IR Inten    --    20.3903                97.2710                50.2751

                    82                     83                     84
                     A                      A                      A
 Frequencies --  3089.5697              3092.9282              3744.9547
 Red. masses --     1.1000                 1.0957                 1.0686
 Frc consts  --     6.1866                 6.1759                 8.8299
 IR Inten    --    46.7075                19.7792                19.8762

 - Thermochemistry -
 -------------------
 Temperature   298.150 Kelvin.  Pressure   1.00000 Atm.
 Atom     1 has atomic number  6 and mass  12.00000

 Molecular mass:   159.13850 amu.
 Principal axes and moments of inertia in atomic units:
                           1         2         3
     Eigenvalues --  1118.984643653.401834260.60725
           X            0.99983  -0.01819   0.00350
           Y            0.01817   0.99981   0.00756
           Z           -0.00364  -0.00750   0.99997
 This molecule is an asymmetric top.
 Rotational symmetry number  1.
 Warning -- assumption of classical behavior for rotation
           may cause significant error
 Rotational temperatures (Kelvin)      0.07740     0.02371     0.02033
 Rotational constants (GHZ):           1.61284     0.49399     0.42359
 Zero-point vibrational energy     697199.9 (Joules/Mol)
                                  166.63477 (Kcal/Mol)
 Warning -- explicit consideration of  22 degrees of freedom as
           vibrations may cause significant error
 Vibrational temperatures:     48.12    67.67    96.99   116.35   133.14
          (Kelvin)            170.14   184.15   228.08   276.30   285.85
                              324.05   345.21   362.04   368.63   397.00
                              501.80   534.28   593.68   610.34   670.61
                              792.66   807.14  1071.52  1146.09  1194.80
                             1277.35  1338.38  1345.84  1354.85  1367.06
                             1384.92  1403.77  1429.75  1432.68  1478.52
                             1501.97  1518.28  1640.63  1665.02  1715.06
                             1758.95  1796.67  1841.39  1869.38  1890.09
                             1919.92  1953.32  1970.34  1972.93  1992.19
                             2007.26  2016.46  2018.02  2037.76  2044.87
                             2117.03  2120.05  2127.65  2140.47  2143.79
                             2149.17  2154.15  2161.81  2168.17  2177.15
                             4223.95  4238.36  4294.68  4318.17  4335.25
                             4340.28  4343.16  4346.30  4351.16  4356.46
                             4399.61  4419.83  4425.76  4429.43  4431.97
                             4440.10  4445.20  4450.03  5388.15

 Zero-point correction=                           0.265549 (Hartree/Particle)
 Thermal correction to Energy=                    0.280896
 Thermal correction to Enthalpy=                  0.281840
 Thermal correction to Gibbs Free Energy=         0.221944
 Sum of electronic and zero-point Energies=           -504.587724
 Sum of electronic and thermal Energies=              -504.572378
 Sum of electronic and thermal Enthalpies=            -504.571434
 Sum of electronic and thermal Free Energies=         -504.631330

                     E (Thermal)             CV                S
                      KCal/Mol        Cal/Mol-Kelvin    Cal/Mol-Kelvin
 Total                  176.265             53.918            126.062
 Electronic               0.000              0.000              1.377
 Translational            0.889              2.981             41.103
 Rotational               0.889              2.981             31.233
 Vibrational            174.487             47.957             52.349
 Vibration     1          0.594              1.983              5.614
 Vibration     2          0.595              1.979              4.939
 Vibration     3          0.598              1.970              4.228
 Vibration     4          0.600              1.962              3.870
 Vibration     5          0.602              1.955              3.606
 Vibration     6          0.608              1.934              3.129
 Vibration     7          0.611              1.925              2.976
 Vibration     8          0.621              1.893              2.567
 Vibration     9          0.634              1.851              2.208
 Vibration    10          0.637              1.842              2.145
 Vibration    11          0.650              1.803              1.917
 Vibration    12          0.657              1.779              1.803
 Vibration    13          0.664              1.760              1.719
 Vibration    14          0.666              1.752              1.687
 Vibration    15          0.678              1.718              1.559
 Vibration    16          0.726              1.578              1.172
 Vibration    17          0.743              1.531              1.074
 Vibration    18          0.776              1.443              0.917
 Vibration    19          0.786              1.418              0.878
 Vibration    20          0.823              1.325              0.749
 Vibration    21          0.906              1.138              0.542
 Vibration    22          0.917              1.116              0.522

 Optimization completed.
    -- Stationary point found.
 Normal termination of Gaussian 09 at Sun Feb  9 05:39:25 2014.

 -----------------------------------------------------------
 #P Geom=AllCheck Guess=TCheck SCRF=Check CCSD(T)/6-31+G(d')
 -----------------------------------------------------------

 Structure from the checkpoint file:  C9H18OOH_3_26_b.chk
 ---------------------
 optimization and freq
 ---------------------
 Charge =  0 Multiplicity = 2

 SCF Done:  E(UHF) =  -501.453441028     A.U. after   20 cycles
 E2 =    -0.1570578339D+01 EUMP2 =    -0.50302401936719D+03
 CCSD(T)
 CCSD(T)= -0.50319586863D+03
 503.1399076\CCSD=-503.1422998\CCSD(T)=-503.1958686\S2=0.764717\S2-1=0.
 Normal termination of Gaussian 09 at Sun Feb  9 16:10:03 2014.

 -----------------------------------------------------
 #P Geom=AllCheck Guess=TCheck SCRF=Check MP4SDQ/CBSB4
 -----------------------------------------------------

 Structure from the checkpoint file:  C9H18OOH_3_26_b.chk
 ---------------------
 optimization and freq
 ---------------------
 Charge =  0 Multiplicity = 2

 SCF Done:  E(UHF) =  -501.485116900     A.U. after   17 cycles
 E2 =    -0.1695720983D+01 EUMP2 =    -0.50318083788263D+03
 Normal termination of Gaussian 09 at Sun Feb  9 16:43:26 2014.

 ----------------------------------------------------------------------
 #P Geom=AllCheck Guess=TCheck SCRF=Check MP2/CBSB3 CBSExtrap=(NMin=10,
 MinPop)
 ----------------------------------------------------------------------

 Structure from the checkpoint file:  C9H18OOH_3_26_b.chk
 ---------------------
 optimization and freq
 ---------------------
 Charge =  0 Multiplicity = 2

                         Standard orientation:
 ---------------------------------------------------------------------
 Center     Atomic      Atomic             Coordinates (Angstroms)
 Number     Number       Type             X           Y           Z
 ---------------------------------------------------------------------
      1          6           0        2.697900   -0.825579    1.380962
      2          1           0        2.354395   -0.006622    2.016989
      3          1           0        3.790724   -0.883685    1.450916
      4          1           0        2.316801   -1.763457    1.818123
      5          6           0        2.249125   -0.648111   -0.035152
      6          6           0       -0.279410   -0.387115    0.195693
      7          1           0       -0.241086   -0.406421    1.290937
      8          1           0       -0.324438   -1.429121   -0.135940
      9          6           0       -1.519161    0.385658   -0.273448
     10          1           0       -1.587678    0.327386   -1.368386
     11          1           0       -1.378281    1.442013   -0.029476
     12          6           0       -2.849601   -0.094382    0.336592
     13          1           0       -2.746883   -0.050523    1.429761
     14          6           0       -3.990569    0.851914   -0.062451
     15          1           0       -4.141549    0.845118   -1.147570
     16          1           0       -4.934083    0.555526    0.405190
     17          1           0       -3.775541    1.881681    0.236747
     18          6           0        2.769137   -1.575996   -1.083635
     19          1           0        2.577280   -1.199272   -2.092355
     20          1           0        3.848506   -1.735312   -0.978670
     21          1           0        2.306987   -2.576092   -1.020103
     22          6           0       -3.189898   -1.541579   -0.047529
     23          1           0       -4.146801   -1.846465    0.385997
     24          1           0       -3.271110   -1.644973   -1.135538
     25          1           0       -2.433760   -2.250122    0.299813
     26          6           0        1.045889    0.202512   -0.328072
     27          1           0        0.965992    0.368685   -1.408856
     28          8           0        1.137460    1.495897    0.305888
     29          8           0        2.147434    2.269331   -0.385571
     30          1           0        2.940907    2.045897    0.122124
 ---------------------------------------------------------------------

 SCF Done:  E(UHF) =  -501.622681574     A.U. after   18 cycles
 E2 =    -0.1998544056D+01 EUMP2 =    -0.50362122562921D+03
 E2(CBS)=      -2.193166 CBS-Int=       0.065703 OIii=      17.380893

 The electronic state is 2-A.
 Alpha  occ. eigenvalues --  -20.61662 -20.61557 -11.28270 -11.23603 -11.22489
 Alpha  occ. eigenvalues --  -11.22311 -11.22252 -11.22037 -11.21224 -11.20874
 Alpha  occ. eigenvalues --  -11.20643  -1.46607  -1.22530  -1.09819  -1.08529
 Alpha  occ. eigenvalues --   -1.01119  -0.94658  -0.92618  -0.91495  -0.83599
 Alpha  occ. eigenvalues --   -0.76519  -0.75032  -0.72022  -0.65619  -0.64509
 Alpha  occ. eigenvalues --   -0.62830  -0.62636  -0.60142  -0.58981  -0.57838
 Alpha  occ. eigenvalues --   -0.57260  -0.54976  -0.54529  -0.53379  -0.52907
 Alpha  occ. eigenvalues --   -0.50995  -0.50578  -0.49764  -0.49110  -0.47417
 Alpha  occ. eigenvalues --   -0.46165  -0.45675  -0.45040  -0.44037  -0.32687
 Alpha virt. eigenvalues --    0.03627   0.04529   0.04937   0.05313   0.06390
 Alpha virt. eigenvalues --    0.06594   0.06776   0.07455   0.07971   0.08408
 Alpha virt. eigenvalues --    0.08827   0.09140   0.09637   0.10189   0.11170

  Beta  occ. eigenvalues --  -20.61675 -20.61424 -11.28593 -11.22585 -11.22349
  Beta  occ. eigenvalues --  -11.22307 -11.22304 -11.21204 -11.21097 -11.20875
  Beta  occ. eigenvalues --  -11.20640  -1.46414  -1.22247  -1.09037  -1.05539
  Beta  occ. eigenvalues --   -1.00583  -0.94633  -0.92614  -0.91309  -0.82669
  Beta  occ. eigenvalues --   -0.76409  -0.72511  -0.71444  -0.65116  -0.63305
  Beta  occ. eigenvalues --   -0.62391  -0.61981  -0.58907  -0.57655  -0.57243
  Beta  occ. eigenvalues --   -0.56610  -0.54768  -0.53489  -0.53294  -0.52720
  Beta  occ. eigenvalues --   -0.50579  -0.50465  -0.49455  -0.48927  -0.47141
  Beta  occ. eigenvalues --   -0.45969  -0.45621  -0.44766  -0.43346
  Beta virt. eigenvalues --    0.03644   0.04539   0.04946   0.05315   0.06400
  Beta virt. eigenvalues --    0.06595   0.06781   0.07330   0.07953   0.08338
  Beta virt. eigenvalues --    0.08824   0.09127   0.09636   0.10052   0.11090

 Mulliken atomic charges:
              1
     1  C   -0.366701
     2  H    0.099269
     3  H    0.110275
     4  H    0.058313
     5  C    0.649900
     6  C   -0.292268
     7  H    0.119927
     8  H    0.024746
     9  C   -0.622303
    10  H    0.065182
    11  H    0.085489
    12  C    0.989524
    13  H    0.038527
    14  C   -0.419813
    15  H    0.055151
    16  H    0.097767
    17  H    0.060310
    18  C   -0.540368
    19  H    0.064475
    20  H    0.076566
    21  H    0.072608
    22  C   -0.604299
    23  H    0.089729
    24  H    0.064224
    25  H    0.063804
    26  C   -0.152622
    27  H    0.160235
    28  O   -0.076982
    29  O   -0.235157
    30  H    0.264492
 Sum of Mulliken atomic charges =   0.00000

 Dipole moment (field-independent basis, Debye):
    X=              0.9110    Y=             -2.2625    Z=              0.3152  Tot=              2.4593
 Quadrupole moment (field-independent basis, Debye-Ang):
   XX=            -65.7126   YY=            -77.5427   ZZ=            -71.4376
   XY=             -1.3443   XZ=              1.3387   YZ=              1.3925

 Normal termination of Gaussian 09 at Sun Feb  9 18:56:50 2014.
