 Gaussian 09, Revision C.01,
 Gaussian 09:  EM64L-G09RevC.01 23-Sep-2011

 --------------------------
 #p cbs-qb3 opt=calcfc freq
 --------------------------

 (Enter /usr/caen/gaussian-09revc/g09/l101.exe)
 --------------------------------------------
 C9H18OOH_2_26_c using cbs-qb3 to cal. energy
 --------------------------------------------
 Charge =  0 Multiplicity = 2

 SCF Done:  E(UB3LYP) =  -504.849979126     A.U. after   15 cycles
 SCF Done:  E(UB3LYP) =  -504.850181079     A.U. after   14 cycles
 SCF Done:  E(UB3LYP) =  -504.850180058     A.U. after   13 cycles
 SCF Done:  E(UB3LYP) =  -504.850212203     A.U. after   12 cycles
 SCF Done:  E(UB3LYP) =  -504.850214288     A.U. after   10 cycles
 SCF Done:  E(UB3LYP) =  -504.850214360     A.U. after    7 cycles
 Optimization completed.
    -- Stationary point found.
 Normal termination of Gaussian 09 at Thu Feb 20 18:02:15 2014.

 ---------------------------------------------------------
 #P Geom=AllCheck Guess=TCheck SCRF=Check B3LYP/CBSB7 Freq
 ---------------------------------------------------------

 Structure from the checkpoint file:  C9H18OOH_2_26_c.chk
 --------------------------------------------
 C9H18OOH_2_26_c using cbs-qb3 to cal. energy
 --------------------------------------------
 Charge =  0 Multiplicity = 2

 SCF Done:  E(UB3LYP) =  -504.850214360     A.U. after    1 cycles

  Exact polarizability: 134.747   3.076 110.965  -0.888   1.884  98.252
 Approx polarizability: 156.894   3.612 158.002   2.228   1.296 150.241

                     1                      2                      3
                     A                      A                      A
 Frequencies --    23.8067                41.5442                53.7980
 Red. masses --     2.8411                 3.8946                 2.9863
 Frc consts  --     0.0009                 0.0040                 0.0051
 IR Inten    --     0.0809                 0.7522                 0.3686

                     4                      5                      6
                     A                      A                      A
 Frequencies --   107.5325               131.1584               171.3999
 Red. masses --     2.0600                 3.9616                 2.3375
 Frc consts  --     0.0140                 0.0402                 0.0405
 IR Inten    --     0.1258                 1.4825                 2.6574

                     7                      8                      9
                     A                      A                      A
 Frequencies --   197.0016               206.7518               219.9015
 Red. masses --     1.2714                 1.4874                 1.1252
 Frc consts  --     0.0291                 0.0375                 0.0321
 IR Inten    --    27.7121                21.3476                41.2519

                    10                     11                     12
                     A                      A                      A
 Frequencies --   221.7726               226.0710               253.7770
 Red. masses --     2.8059                 1.1703                 1.1290
 Frc consts  --     0.0813                 0.0352                 0.0428
 IR Inten    --     2.8247                 7.8836                 0.3511

                    13                     14                     15
                     A                      A                      A
 Frequencies --   261.3646               285.7644               316.3299
 Red. masses --     1.1174                 2.0706                 2.1866
 Frc consts  --     0.0450                 0.0996                 0.1289
 IR Inten    --    22.2740                 3.3895                 3.5125

                    16                     17                     18
                     A                      A                      A
 Frequencies --   352.5426               366.7158               393.4050
 Red. masses --     2.5033                 2.3318                 2.4049
 Frc consts  --     0.1833                 0.1848                 0.2193
 IR Inten    --     1.7335                 1.1016                 1.3688

                    19                     20                     21
                     A                      A                      A
 Frequencies --   428.0271               455.7618               485.0198
 Red. masses --     2.0791                 2.7086                 3.2106
 Frc consts  --     0.2244                 0.3315                 0.4450
 IR Inten    --     2.5609                 6.4967                 0.0955

                    22                     23                     24
                     A                      A                      A
 Frequencies --   549.4886               577.5119               731.4966
 Red. masses --     2.9288                 3.7669                 1.9576
 Frc consts  --     0.5210                 0.7402                 0.6172
 IR Inten    --     4.5869                15.2026                 1.7080

                    25                     26                     27
                     A                      A                      A
 Frequencies --   790.1415               826.1869               845.9797
 Red. masses --     2.2092                 2.3233                 2.5420
 Frc consts  --     0.8126                 0.9344                 1.0719
 IR Inten    --    13.1747                 0.9366                 8.1258

                    28                     29                     30
                     A                      A                      A
 Frequencies --   915.9201               921.3881               926.7960
 Red. masses --     3.9160                 2.2069                 1.2918
 Frc consts  --     1.9356                 1.1039                 0.6538
 IR Inten    --     3.1359                 2.3575                 1.6098

                    31                     32                     33
                     A                      A                      A
 Frequencies --   935.2219               944.5064               961.8339
 Red. masses --     1.8167                 1.8444                 1.4436
 Frc consts  --     0.9362                 0.9694                 0.7869
 IR Inten    --     0.3815                 0.6327                 0.2722

                    34                     35                     36
                     A                      A                      A
 Frequencies --   977.2600              1011.6218              1020.8183
 Red. masses --     1.6131                 1.7593                 1.9622
 Frc consts  --     0.9077                 1.0608                 1.2047
 IR Inten    --     1.1678                 1.0564                 4.1868

                    37                     38                     39
                     A                      A                      A
 Frequencies --  1083.8011              1122.4614              1145.0139
 Red. masses --     1.4483                 2.1052                 2.1743
 Frc consts  --     1.0023                 1.5627                 1.6795
 IR Inten    --     1.4183                 2.3991                 5.3474

                    40                     41                     42
                     A                      A                      A
 Frequencies --  1159.5422              1188.6354              1204.1724
 Red. masses --     2.2466                 1.7676                 2.4177
 Frc consts  --     1.7797                 1.4714                 2.0655
 IR Inten    --    22.4743                 8.2927                15.3887

                    43                     44                     45
                     A                      A                      A
 Frequencies --  1237.2448              1254.4907              1277.5795
 Red. masses --     1.5110                 2.2936                 1.3603
 Frc consts  --     1.3628                 2.1267                 1.3082
 IR Inten    --     1.3174                25.7711                 4.3592

                    46                     47                     48
                     A                      A                      A
 Frequencies --  1322.6169              1339.6099              1355.6334
 Red. masses --     1.1873                 1.3166                 1.1422
 Frc consts  --     1.2237                 1.3921                 1.2368
 IR Inten    --     4.4205                 5.7493                45.9996

                    49                     50                     51
                     A                      A                      A
 Frequencies --  1370.7597              1378.7662              1387.2104
 Red. masses --     1.3196                 1.4243                 1.2587
 Frc consts  --     1.4609                 1.5952                 1.4271
 IR Inten    --     3.2287                 0.7460                12.6023

                    52                     53                     54
                     A                      A                      A
 Frequencies --  1401.2585              1404.6899              1418.0847
 Red. masses --     1.2616                 1.2867                 1.5066
 Frc consts  --     1.4595                 1.4958                 1.7851
 IR Inten    --     8.9293                10.5194                 0.8261

                    55                     56                     57
                     A                      A                      A
 Frequencies --  1421.2479              1472.5343              1476.7363
 Red. masses --     1.2794                 1.0833                 1.0696
 Frc consts  --     1.5227                 1.3839                 1.3743
 IR Inten    --     6.1041                 0.2886                 3.9595

                    58                     59                     60
                     A                      A                      A
 Frequencies --  1488.2228              1489.7303              1491.8478
 Red. masses --     1.0606                 1.0545                 1.0453
 Frc consts  --     1.3840                 1.3788                 1.3707
 IR Inten    --     0.7696                 0.2953                 1.2542

                    61                     62                     63
                     A                      A                      A
 Frequencies --  1494.0132              1500.7346              1506.1463
 Red. masses --     1.0662                 1.0755                 1.0533
 Frc consts  --     1.4021                 1.4271                 1.4078
 IR Inten    --     3.0100                 3.2668                 4.3416

                    64                     65                     66
                     A                      A                      A
 Frequencies --  1513.0708              1513.3590              2973.1006
 Red. masses --     1.0491                 1.0535                 1.0680
 Frc consts  --     1.4151                 1.4215                 5.5620
 IR Inten    --    15.7032                 4.4331                24.1581

                    67                     68                     69
                     A                      A                      A
 Frequencies --  2987.0489              3001.5707              3012.4153
 Red. masses --     1.0787                 1.0699                 1.0365
 Frc consts  --     5.6709                 5.6790                 5.5417
 IR Inten    --     1.6640                29.1970                31.9746

                    70                     71                     72
                     A                      A                      A
 Frequencies --  3018.5044              3033.3100              3037.6624
 Red. masses --     1.0390                 1.0348                 1.0350
 Frc consts  --     5.5777                 5.6096                 5.6270
 IR Inten    --    44.5699                13.3831                23.3023

                    73                     74                     75
                     A                      A                      A
 Frequencies --  3055.6986              3069.9105              3070.7158
 Red. masses --     1.0867                 1.0982                 1.0998
 Frc consts  --     5.9785                 6.0980                 6.1100
 IR Inten    --    10.1517                 4.6353                 8.6645

                    76                     77                     78
                     A                      A                      A
 Frequencies --  3078.3650              3084.9003              3091.2912
 Red. masses --     1.0994                 1.1014                 1.0994
 Frc consts  --     6.1382                 6.1753                 6.1900
 IR Inten    --    95.0893                44.6586                45.9126

                    79                     80                     81
                     A                      A                      A
 Frequencies --  3099.3585              3106.6905              3117.1171
 Red. masses --     1.1023                 1.1010                 1.1016
 Frc consts  --     6.2386                 6.2609                 6.3064
 IR Inten    --     5.4456                40.3383                16.9248

                    82                     83                     84
                     A                      A                      A
 Frequencies --  3119.8356              3151.9216              3779.0877
 Red. masses --     1.1025                 1.0874                 1.0687
 Frc consts  --     6.3227                 6.3651                 8.9924
 IR Inten    --    19.7324                21.5761                36.6879

 - Thermochemistry -
 -------------------
 Temperature   298.150 Kelvin.  Pressure   1.00000 Atm.
 Atom     1 has atomic number  6 and mass  12.00000

 Molecular mass:   159.13850 amu.
 Principal axes and moments of inertia in atomic units:
                           1         2         3
     Eigenvalues --   913.699223787.639994199.39208
           X            0.99996   0.00775  -0.00466
           Y           -0.00758   0.99934   0.03561
           Z            0.00494  -0.03557   0.99935
 This molecule is an asymmetric top.
 Rotational symmetry number  1.
 Warning -- assumption of classical behavior for rotation
           may cause significant error
 Rotational temperatures (Kelvin)      0.09479     0.02287     0.02063
 Rotational constants (GHZ):           1.97520     0.47648     0.42976
 Zero-point vibrational energy     696485.8 (Joules/Mol)
                                  166.46411 (Kcal/Mol)
 Warning -- explicit consideration of  23 degrees of freedom as
           vibrations may cause significant error
 Vibrational temperatures:     34.25    59.77    77.40   154.72   188.71
          (Kelvin)            246.61   283.44   297.47   316.39   319.08
                              325.27   365.13   376.04   411.15   455.13
                              507.23   527.62   566.02   615.83   655.74
                              697.83   790.59   830.91  1052.46  1136.84
                             1188.70  1217.17  1317.80  1325.67  1333.45
                             1345.57  1358.93  1383.86  1406.06  1455.50
                             1468.73  1559.35  1614.97  1647.42  1668.32
                             1710.18  1732.53  1780.12  1804.93  1838.15
                             1902.95  1927.40  1950.45  1972.22  1983.73
                             1995.88  2016.10  2021.03  2040.30  2044.86
                             2118.65  2124.69  2141.22  2143.39  2146.43
                             2149.55  2159.22  2167.01  2176.97  2177.38
                             4277.62  4297.69  4318.59  4334.19  4342.95
                             4364.25  4370.51  4396.46  4416.91  4418.07
                             4429.08  4438.48  4447.67  4459.28  4469.83
                             4484.83  4488.74  4534.91  5437.26

 Zero-point correction=                           0.265277 (Hartree/Particle)
 Thermal correction to Energy=                    0.280336
 Thermal correction to Enthalpy=                  0.281280
 Thermal correction to Gibbs Free Energy=         0.222476
 Sum of electronic and zero-point Energies=           -504.584937
 Sum of electronic and thermal Energies=              -504.569878
 Sum of electronic and thermal Enthalpies=            -504.568934
 Sum of electronic and thermal Free Energies=         -504.627738

                     E (Thermal)             CV                S
                      KCal/Mol        Cal/Mol-Kelvin    Cal/Mol-Kelvin
 Total                  175.914             54.782            123.764
 Electronic               0.000              0.000              1.377
 Translational            0.889              2.981             41.103
 Rotational               0.889              2.981             31.053
 Vibrational            174.136             48.821             50.231
 Vibration     1          0.593              1.985              6.288
 Vibration     2          0.594              1.981              5.184
 Vibration     3          0.596              1.976              4.673
 Vibration     4          0.606              1.943              3.313
 Vibration     5          0.612              1.922              2.929
 Vibration     6          0.626              1.878              2.420
 Vibration     7          0.636              1.844              2.161
 Vibration     8          0.641              1.830              2.072
 Vibration     9          0.647              1.811              1.960
 Vibration    10          0.648              1.808              1.945
 Vibration    11          0.650              1.801              1.910
 Vibration    12          0.665              1.756              1.704
 Vibration    13          0.669              1.743              1.653
 Vibration    14          0.684              1.700              1.499
 Vibration    15          0.703              1.642              1.329
 Vibration    16          0.729              1.570              1.155
 Vibration    17          0.740              1.541              1.093
 Vibration    18          0.761              1.484              0.987
 Vibration    19          0.790              1.409              0.865
 Vibration    20          0.814              1.348              0.779
 Vibration    21          0.841              1.283              0.697
 Vibration    22          0.905              1.141              0.545
 Vibration    23          0.934              1.080              0.490

 Optimization completed.
    -- Stationary point found.
 Normal termination of Gaussian 09 at Thu Feb 20 18:15:27 2014.

 -----------------------------------------------------------
 #P Geom=AllCheck Guess=TCheck SCRF=Check CCSD(T)/6-31+G(d')
 -----------------------------------------------------------

 Structure from the checkpoint file:  C9H18OOH_2_26_c.chk
 --------------------------------------------
 C9H18OOH_2_26_c using cbs-qb3 to cal. energy
 --------------------------------------------
 Charge =  0 Multiplicity = 2

 SCF Done:  E(UHF) =  -501.451199656     A.U. after   21 cycles
 E2 =    -0.1573086241D+01 EUMP2 =    -0.50302428589672D+03
 CCSD(T)
 CCSD(T)= -0.50319586843D+03
 3-0=-503.1139341\MP4SDQ=-503.1394925\CCSD=-503.1417914\CCSD(T)=-503.19
 Normal termination of Gaussian 09 at Fri Feb 21 06:35:18 2014.

 -----------------------------------------------------
 #P Geom=AllCheck Guess=TCheck SCRF=Check MP4SDQ/CBSB4
 -----------------------------------------------------

 Structure from the checkpoint file:  C9H18OOH_2_26_c.chk
 --------------------------------------------
 C9H18OOH_2_26_c using cbs-qb3 to cal. energy
 --------------------------------------------
 Charge =  0 Multiplicity = 2

 SCF Done:  E(UHF) =  -501.483034178     A.U. after   18 cycles
 E2 =    -0.1698283883D+01 EUMP2 =    -0.50318131806071D+03
 Normal termination of Gaussian 09 at Fri Feb 21 07:10:08 2014.

 ----------------------------------------------------------------------
 #P Geom=AllCheck Guess=TCheck SCRF=Check MP2/CBSB3 CBSExtrap=(NMin=10,
 MinPop)
 ----------------------------------------------------------------------

 Structure from the checkpoint file:  C9H18OOH_2_26_c.chk
 --------------------------------------------
 C9H18OOH_2_26_c using cbs-qb3 to cal. energy
 --------------------------------------------
 Charge =  0 Multiplicity = 2

                         Standard orientation:
 ---------------------------------------------------------------------
 Center     Atomic      Atomic             Coordinates (Angstroms)
 Number     Number       Type             X           Y           Z
 ---------------------------------------------------------------------
      1          6           0       -3.208767    0.194036    1.086560
      2          1           0       -2.842931    1.070638    1.623079
      3          1           0       -3.419016   -0.590938    1.817356
      4          1           0       -4.141525    0.450862    0.577901
      5          6           0       -0.869251   -0.645827    0.740595
      6          1           0       -0.864293   -0.758966    1.820664
      7          6           0        0.411596   -0.819243   -0.004134
      8          1           0        0.237187   -0.675586   -1.074778
      9          1           0        0.776234   -1.848460    0.127076
     10          6           0        1.511754    0.164916    0.456341
     11          1           0        1.694815    0.026240    1.530520
     12          1           0        1.122927    1.179947    0.334993
     13          6           0        2.847530    0.041255   -0.301029
     14          1           0        2.626815    0.114784   -1.374769
     15          6           0        3.776784    1.207367    0.065028
     16          1           0        4.023712    1.189010    1.132392
     17          1           0        4.716613    1.157126   -0.493062
     18          1           0        3.308059    2.171489   -0.151475
     19          6           0       -2.711802   -1.437072   -0.786656
     20          1           0       -2.968866   -2.282628   -0.145544
     21          1           0       -3.607593   -1.116737   -1.325223
     22          1           0       -1.966885   -1.764187   -1.513684
     23          6           0        3.548222   -1.302225   -0.053213
     24          1           0        4.497342   -1.353486   -0.594990
     25          1           0        3.767354   -1.434222    1.012436
     26          1           0        2.941271   -2.151338   -0.376685
     27          6           0       -2.163064   -0.283258    0.075098
     28          8           0       -1.950296    0.740260   -0.944957
     29          8           0       -1.381472    1.927633   -0.322502
     30          1           0       -2.105088    2.553630   -0.458084
 ---------------------------------------------------------------------

 SCF Done:  E(UHF) =  -501.619986146     A.U. after   17 cycles
 E2 =    -0.2001310400D+01 EUMP2 =    -0.50362129654607D+03
 E2(CBS)=      -2.195441 CBS-Int=       0.065624 OIii=      17.368982

 The electronic state is 2-A.
 Alpha  occ. eigenvalues --  -20.61618 -20.61585 -11.29381 -11.22431 -11.21914
 Alpha  occ. eigenvalues --  -11.21783 -11.21662 -11.21158 -11.20637 -11.20319
 Alpha  occ. eigenvalues --  -11.20196  -1.46216  -1.22812  -1.09327  -1.06392
 Alpha  occ. eigenvalues --   -1.01154  -0.94492  -0.92091  -0.91826  -0.82726
 Alpha  occ. eigenvalues --   -0.75665  -0.75213  -0.71038  -0.65354  -0.64288
 Alpha  occ. eigenvalues --   -0.62808  -0.61934  -0.59655  -0.58153  -0.56947
 Alpha  occ. eigenvalues --   -0.55260  -0.54813  -0.53436  -0.53297  -0.52724
 Alpha  occ. eigenvalues --   -0.51135  -0.50424  -0.49276  -0.48808  -0.46597
 Alpha  occ. eigenvalues --   -0.45961  -0.44972  -0.44832  -0.43525  -0.33273
 Alpha virt. eigenvalues --    0.03918   0.04786   0.05064   0.05312   0.06433
 Alpha virt. eigenvalues --    0.06463   0.06820   0.07444   0.08005   0.08446
 Alpha virt. eigenvalues --    0.09060   0.09213   0.09668   0.09795   0.11484

  Beta  occ. eigenvalues --  -20.61641 -20.61398 -11.29714 -11.21747 -11.21738
  Beta  occ. eigenvalues --  -11.21650 -11.21471 -11.20456 -11.20317 -11.20192
  Beta  occ. eigenvalues --  -11.19957  -1.45979  -1.22504  -1.08433  -1.04814
  Beta  occ. eigenvalues --   -1.00308  -0.94127  -0.92065  -0.89000  -0.82029
  Beta  occ. eigenvalues --   -0.75497  -0.73636  -0.70362  -0.64528  -0.63853
  Beta  occ. eigenvalues --   -0.62442  -0.61727  -0.59388  -0.57839  -0.56173
  Beta  occ. eigenvalues --   -0.54840  -0.54368  -0.53244  -0.52841  -0.52667
  Beta  occ. eigenvalues --   -0.50668  -0.49517  -0.48806  -0.48526  -0.45982
  Beta  occ. eigenvalues --   -0.45315  -0.44878  -0.44525  -0.43015
  Beta virt. eigenvalues --    0.03939   0.04788   0.04994   0.05333   0.06421
  Beta virt. eigenvalues --    0.06459   0.06821   0.07426   0.07986   0.08455
  Beta virt. eigenvalues --    0.09069   0.09223   0.09662   0.09800   0.11486

 Mulliken atomic charges:
              1
     1  C   -0.236439
     2  H    0.085060
     3  H    0.074338
     4  H    0.093011
     5  C    0.237458
     6  H    0.178691
     7  C   -0.222320
     8  H    0.076690
     9  H    0.047330
    10  C   -0.724486
    11  H    0.063819
    12  H    0.103189
    13  C    0.826456
    14  H    0.036768
    15  C   -0.410280
    16  H    0.051660
    17  H    0.091066
    18  H    0.061573
    19  C   -0.558340
    20  H    0.071329
    21  H    0.097237
    22  H    0.089082
    23  C   -0.572520
    24  H    0.082410
    25  H    0.060199
    26  H    0.073061
    27  C    0.307450
    28  O   -0.138633
    29  O   -0.226982
    30  H    0.282127
 Sum of Mulliken atomic charges =   0.00000

 Dipole moment (field-independent basis, Debye):
    X=             -1.5316    Y=             -0.2348    Z=              0.8584  Tot=              1.7714
 Quadrupole moment (field-independent basis, Debye-Ang):
   XX=            -67.3358   YY=            -68.5889   ZZ=            -72.5485
   XY=             -2.3592   XZ=             -1.8455   YZ=              0.0109

 Normal termination of Gaussian 09 at Fri Feb 21 08:37:27 2014.
