 Gaussian 09, Revision C.01,

 --------------------------------------------------
 #p UB3LYP/6-311++G(d,p) guess=mix stable=(opt,xqc)
 --------------------------------------------------

 (Enter /usr/caen/gaussian-09revc/g09/l101.exe)
 --------------------------------------------
 C9H18OOH_3_26_e using cbs-qb3 to cal. energy
 --------------------------------------------
 Charge =  0 Multiplicity = 2

 SCF Done:  E(UB3LYP) =  -504.851891035     A.U. after   19 cycles
 Normal termination of Gaussian 09 at Sun Feb  9 06:59:13 2014.
 Gaussian 09:  EM64L-G09RevC.01 23-Sep-2011

 ------------------------------------------------
 #p cbs-qb3 opt=calcfc freq geom=check guess=read
 ------------------------------------------------

 ---------------------
 optimization and freq
 ---------------------
 Structure from the checkpoint file:  C9H18OOH_3_26_e.chk
 Charge =  0 Multiplicity = 2

 SCF Done:  E(UB3LYP) =  -504.844035565     A.U. after   10 cycles
 SCF Done:  E(UB3LYP) =  -504.844128519     A.U. after   12 cycles
 SCF Done:  E(UB3LYP) =  -504.844130396     A.U. after   10 cycles
 SCF Done:  E(UB3LYP) =  -504.844130549     A.U. after    8 cycles
 Optimization completed on the basis of negligible forces.
    -- Stationary point found.
 Normal termination of Gaussian 09 at Sun Feb  9 07:15:13 2014.

 ---------------------------------------------------------
 #P Geom=AllCheck Guess=TCheck SCRF=Check B3LYP/CBSB7 Freq
 ---------------------------------------------------------

 Structure from the checkpoint file:  C9H18OOH_3_26_e.chk
 ---------------------
 optimization and freq
 ---------------------
 Charge =  0 Multiplicity = 2

 SCF Done:  E(UB3LYP) =  -504.844130549     A.U. after    1 cycles

  Exact polarizability: 135.369  -2.150 111.770   0.098  -1.432  96.783
 Approx polarizability: 156.613  -5.962 155.446   1.558  -6.468 151.202

                     1                      2                      3
                     A                      A                      A
 Frequencies --    22.4185                29.6478                52.5617
 Red. masses --     2.7865                 3.0216                 3.3492
 Frc consts  --     0.0008                 0.0016                 0.0055
 IR Inten    --     0.0239                 0.2278                 1.1878

                     4                      5                      6
                     A                      A                      A
 Frequencies --    74.2471               123.8535               145.6378
 Red. masses --     3.2536                 3.2474                 2.8826
 Frc consts  --     0.0106                 0.0293                 0.0360
 IR Inten    --     0.2814                 3.4723                 3.5707

                     7                      8                      9
                     A                      A                      A
 Frequencies --   207.2596               212.4317               221.4037
 Red. masses --     1.1371                 1.5335                 1.7402
 Frc consts  --     0.0288                 0.0408                 0.0503
 IR Inten    --    10.9348                46.9617                40.4412

                    10                     11                     12
                     A                      A                      A
 Frequencies --   233.4819               242.9457               262.1806
 Red. masses --     1.0385                 1.9574                 1.2332
 Frc consts  --     0.0334                 0.0681                 0.0499
 IR Inten    --     1.7810                39.2489                 0.9553

                    13                     14                     15
                     A                      A                      A
 Frequencies --   269.6070               286.9659               305.4622
 Red. masses --     1.5321                 1.9378                 1.8066
 Frc consts  --     0.0656                 0.0940                 0.0993
 IR Inten    --     1.0865                 1.1909                11.7259

                    16                     17                     18
                     A                      A                      A
 Frequencies --   331.0089               369.7809               405.7206
 Red. masses --     1.6591                 2.2190                 2.5069
 Frc consts  --     0.1071                 0.1788                 0.2431
 IR Inten    --     7.2936                 0.4976                 1.8700

                    19                     20                     21
                     A                      A                      A
 Frequencies --   427.0183               461.2483               483.9349
 Red. masses --     2.8308                 2.2467                 3.2643
 Frc consts  --     0.3041                 0.2816                 0.4504
 IR Inten    --     3.0089                 7.1153                 5.6051

                    22                     23                     24
                     A                      A                      A
 Frequencies --   500.6207               570.3571               784.5770
 Red. masses --     2.9152                 3.2260                 2.3309
 Frc consts  --     0.4305                 0.6183                 0.8454
 IR Inten    --     2.1971                 8.6527                 1.8319

                    25                     26                     27
                     A                      A                      A
 Frequencies --   843.4110               852.7307               923.3631
 Red. masses --     2.5305                 2.3003                 1.7764
 Frc consts  --     1.0606                 0.9855                 0.8923
 IR Inten    --     2.5796                 5.6539                 5.1883

                    28                     29                     30
                     A                      A                      A
 Frequencies --   926.1780               933.1388               936.6804
 Red. masses --     1.4860                 1.7273                 1.4132
 Frc consts  --     0.7510                 0.8861                 0.7305
 IR Inten    --     3.0847                 3.6270                 2.7967

                    31                     32                     33
                     A                      A                      A
 Frequencies --   946.4111               958.6120               966.0045
 Red. masses --     3.4297                 1.5387                 1.4331
 Frc consts  --     1.8099                 0.8331                 0.7879
 IR Inten    --     4.6450                 1.3109                 1.9055

                    34                     35                     36
                     A                      A                      A
 Frequencies --  1020.2002              1039.5421              1090.9065
 Red. masses --     3.2613                 2.2544                 2.2231
 Frc consts  --     1.9999                 1.4354                 1.5588
 IR Inten    --    28.4882                 1.3580                 3.8572

                    37                     38                     39
                     A                      A                      A
 Frequencies --  1116.7102              1128.7479              1144.8959
 Red. masses --     2.0103                 1.8561                 2.0621
 Frc consts  --     1.4770                 1.3933                 1.5925
 IR Inten    --     1.9778                 0.1432                 2.4672

                    40                     41                     42
                     A                      A                      A
 Frequencies --  1164.2755              1188.5888              1194.1101
 Red. masses --     2.1445                 1.7628                 1.8077
 Frc consts  --     1.7127                 1.4673                 1.5187
 IR Inten    --     6.8249                 5.4424                 0.0788

                    43                     44                     45
                     A                      A                      A
 Frequencies --  1229.8688              1259.2141              1309.1563
 Red. masses --     1.5139                 1.3334                 1.2567
 Frc consts  --     1.3492                 1.2457                 1.2690
 IR Inten    --     4.7742                 3.0290                 1.3826

                    46                     47                     48
                     A                      A                      A
 Frequencies --  1326.0125              1335.8609              1352.6441
 Red. masses --     1.2723                 1.2670                 1.2599
 Frc consts  --     1.3181                 1.3321                 1.3581
 IR Inten    --     1.1984                 8.8116                30.8565

                    49                     50                     51
                     A                      A                      A
 Frequencies --  1363.5402              1366.2633              1388.7109
 Red. masses --     1.3555                 1.2051                 1.2684
 Frc consts  --     1.4849                 1.3254                 1.4412
 IR Inten    --     2.3515                10.4800                 6.0886

                    52                     53                     54
                     A                      A                      A
 Frequencies --  1394.0400              1400.1371              1410.5378
 Red. masses --     1.3032                 1.2589                 1.3626
 Frc consts  --     1.4922                 1.4541                 1.5973
 IR Inten    --    14.2709                 9.7776                 1.4000

                    55                     56                     57
                     A                      A                      A
 Frequencies --  1422.3152              1425.3659              1456.6748
 Red. masses --     1.2345                 1.5261                 1.0784
 Frc consts  --     1.4714                 1.8268                 1.3482
 IR Inten    --     8.5536                 2.7485                 3.5225

                    58                     59                     60
                     A                      A                      A
 Frequencies --  1488.6408              1490.5013              1491.0542
 Red. masses --     1.0438                 1.0501                 1.0504
 Frc consts  --     1.3629                 1.3745                 1.3759
 IR Inten    --     0.0531                 1.9984                 2.9893

                    61                     62                     63
                     A                      A                      A
 Frequencies --  1498.6929              1503.1924              1505.8570
 Red. masses --     1.0426                 1.0517                 1.0549
 Frc consts  --     1.3797                 1.4001                 1.4094
 IR Inten    --     4.3000                 8.1910                 5.8582

                    64                     65                     66
                     A                      A                      A
 Frequencies --  1510.4378              1524.2506              2922.1695
 Red. masses --     1.0597                 1.0480                 1.0724
 Frc consts  --     1.4245                 1.4346                 5.3955
 IR Inten    --     9.2761                13.5957                24.6669

                    67                     68                     69
                     A                      A                      A
 Frequencies --  2959.1378              2998.9277              3013.6595
 Red. masses --     1.0817                 1.0828                 1.0343
 Frc consts  --     5.5808                 5.7377                 5.5344
 IR Inten    --    28.3060                14.8976                30.7861

                    70                     71                     72
                     A                      A                      A
 Frequencies --  3019.4118              3021.3711              3025.3784
 Red. masses --     1.0353                 1.0363                 1.0361
 Frc consts  --     5.5610                 5.5737                 5.5875
 IR Inten    --    33.1993                24.5409                21.4363

                    73                     74                     75
                     A                      A                      A
 Frequencies --  3038.0202              3046.8566              3075.8668
 Red. masses --     1.0824                 1.0854                 1.1016
 Frc consts  --     5.8861                 5.9365                 6.1404
 IR Inten    --    12.4740                26.5080                 5.0444

                    76                     77                     78
                     A                      A                      A
 Frequencies --  3080.8017              3082.3376              3087.1793
 Red. masses --     1.1009                 1.1007                 1.1020
 Frc consts  --     6.1563                 6.1615                 6.1883
 IR Inten    --    70.7343                10.0650                 5.7647

                    79                     80                     81
                     A                      A                      A
 Frequencies --  3087.5278              3090.1992              3093.2301
 Red. masses --     1.1010                 1.1018                 1.1022
 Frc consts  --     6.1839                 6.1992                 6.2135
 IR Inten    --    90.9553                37.5089                42.8459

                    82                     83                     84
                     A                      A                      A
 Frequencies --  3095.3540              3167.5728              3774.1620
 Red. masses --     1.1003                 1.0874                 1.0685
 Frc consts  --     6.2114                 6.4285                 8.9676
 IR Inten    --    39.9244                 8.4199                31.9601

 - Thermochemistry -
 -------------------
 Temperature   298.150 Kelvin.  Pressure   1.00000 Atm.
 Atom     1 has atomic number  6 and mass  12.00000

 Molecular mass:   159.13850 amu.
 Principal axes and moments of inertia in atomic units:
                           1         2         3
     Eigenvalues --  1070.423233607.161644299.02410
           X            0.99991   0.01297  -0.00261
           Y           -0.01293   0.99978   0.01658
           Z            0.00283  -0.01655   0.99986
 This molecule is an asymmetric top.
 Rotational symmetry number  1.
 Warning -- assumption of classical behavior for rotation
           may cause significant error
 Rotational temperatures (Kelvin)      0.08092     0.02401     0.02015
 Rotational constants (GHZ):           1.68601     0.50032     0.41980
 Zero-point vibrational energy     697010.2 (Joules/Mol)
                                  166.58944 (Kcal/Mol)
 Warning -- explicit consideration of  23 degrees of freedom as
           vibrations may cause significant error
 Vibrational temperatures:     32.26    42.66    75.62   106.82   178.20
          (Kelvin)            209.54   298.20   305.64   318.55   335.93
                              349.54   377.22   387.90   412.88   439.49
                              476.25   532.03   583.74   614.38   663.63
                              696.27   720.28   820.62  1128.83  1213.48
                             1226.89  1328.51  1332.56  1342.58  1347.67
                             1361.67  1379.23  1389.86  1467.84  1495.67
                             1569.57  1606.69  1624.01  1647.25  1675.13
                             1710.11  1718.06  1769.50  1811.73  1883.58
                             1907.83  1922.00  1946.15  1961.83  1965.75
                             1998.04  2005.71  2014.48  2029.45  2046.39
                             2050.78  2095.83  2141.82  2144.50  2145.29
                             2156.28  2162.76  2166.59  2173.18  2193.05
                             4204.34  4257.53  4314.78  4335.98  4344.25
                             4347.07  4352.84  4371.03  4383.74  4425.48
                             4432.58  4434.79  4441.76  4442.26  4446.10
                             4450.46  4453.52  4557.43  5430.17

 Zero-point correction=                           0.265477 (Hartree/Particle)
 Thermal correction to Energy=                    0.280567
 Thermal correction to Enthalpy=                  0.281511
 Thermal correction to Gibbs Free Energy=         0.221950
 Sum of electronic and zero-point Energies=           -504.578653
 Sum of electronic and thermal Energies=              -504.563563
 Sum of electronic and thermal Enthalpies=            -504.562619
 Sum of electronic and thermal Free Energies=         -504.622180

                     E (Thermal)             CV                S
                      KCal/Mol        Cal/Mol-Kelvin    Cal/Mol-Kelvin
 Total                  176.058             54.330            125.356
 Electronic               0.000              0.000              1.377
 Translational            0.889              2.981             41.103
 Rotational               0.889              2.981             31.185
 Vibrational            174.281             48.369             51.691
 Vibration     1          0.593              1.985              6.408
 Vibration     2          0.593              1.984              5.853
 Vibration     3          0.596              1.977              4.719
 Vibration     4          0.599              1.966              4.037
 Vibration     5          0.610              1.929              3.039
 Vibration     6          0.617              1.907              2.728
 Vibration     7          0.641              1.830              2.068
 Vibration     8          0.643              1.822              2.023
 Vibration     9          0.648              1.808              1.948
 Vibration    10          0.654              1.790              1.852
 Vibration    11          0.659              1.774              1.781
 Vibration    12          0.669              1.742              1.647
 Vibration    13          0.674              1.729              1.599
 Vibration    14          0.684              1.698              1.492
 Vibration    15          0.696              1.663              1.387
 Vibration    16          0.713              1.614              1.255
 Vibration    17          0.742              1.534              1.081
 Vibration    18          0.771              1.458              0.942
 Vibration    19          0.789              1.411              0.868
 Vibration    20          0.819              1.336              0.762
 Vibration    21          0.840              1.286              0.700
 Vibration    22          0.856              1.249              0.657
 Vibration    23          0.926              1.095              0.504

 Optimization completed on the basis of negligible forces.
    -- Stationary point found.
 Normal termination of Gaussian 09 at Sun Feb  9 07:25:33 2014.

 -----------------------------------------------------------
 #P Geom=AllCheck Guess=TCheck SCRF=Check CCSD(T)/6-31+G(d')
 -----------------------------------------------------------

 Structure from the checkpoint file:  C9H18OOH_3_26_e.chk
 ---------------------
 optimization and freq
 ---------------------
 Charge =  0 Multiplicity = 2

 SCF Done:  E(UHF) =  -501.445324714     A.U. after   20 cycles
 E2 =    -0.1570468112D+01 EUMP2 =    -0.50301579282659D+03
 CCSD(T)
 CCSD(T)= -0.50318770267D+03
 -503.1316954\CCSD=-503.1340868\CCSD(T)=-503.1877027\S2=0.764455\S2-1=0
 Normal termination of Gaussian 09 at Sun Feb  9 16:13:19 2014.

 -----------------------------------------------------
 #P Geom=AllCheck Guess=TCheck SCRF=Check MP4SDQ/CBSB4
 -----------------------------------------------------

 Structure from the checkpoint file:  C9H18OOH_3_26_e.chk
 ---------------------
 optimization and freq
 ---------------------
 Charge =  0 Multiplicity = 2

 SCF Done:  E(UHF) =  -501.477196414     A.U. after   13 cycles
 E2 =    -0.1696027933D+01 EUMP2 =    -0.50317322434654D+03
 Normal termination of Gaussian 09 at Sun Feb  9 16:35:20 2014.

 ----------------------------------------------------------------------
 #P Geom=AllCheck Guess=TCheck SCRF=Check MP2/CBSB3 CBSExtrap=(NMin=10,
 MinPop)
 ----------------------------------------------------------------------

 Structure from the checkpoint file:  C9H18OOH_3_26_e.chk
 ---------------------
 optimization and freq
 ---------------------
 Charge =  0 Multiplicity = 2

                         Standard orientation:
 ---------------------------------------------------------------------
 Center     Atomic      Atomic             Coordinates (Angstroms)
 Number     Number       Type             X           Y           Z
 ---------------------------------------------------------------------
      1          6           0        3.530715    0.109149   -0.106468
      2          1           0        3.646740   -0.829269   -0.654334
      3          1           0        3.644334   -0.091023    0.962844
      4          1           0        4.349992    0.765671   -0.412459
      5          6           0        2.179566    0.769967   -0.414105
      6          1           0        2.116602    0.898846   -1.502743
      7          6           0       -0.328132    0.288868   -0.717312
      8          1           0       -0.181681    0.039431   -1.783566
      9          1           0       -0.447245    1.377786   -0.689357
     10          6           0       -1.548640   -0.383360   -0.183985
     11          1           0       -1.443470   -1.383955    0.221834
     12          6           0       -2.907436    0.244631   -0.263686
     13          1           0       -2.966000    0.821221   -1.199829
     14          6           0       -4.020253   -0.813973   -0.289435
     15          1           0       -4.002919   -1.413442    0.626814
     16          1           0       -5.007613   -0.349181   -0.365218
     17          1           0       -3.898970   -1.494860   -1.135918
     18          6           0        2.110238    2.158418    0.241811
     19          1           0        2.188489    2.075566    1.331019
     20          1           0        2.934402    2.789068   -0.102193
     21          1           0        1.179560    2.683233    0.013586
     22          6           0       -3.140053    1.249517    0.891120
     23          1           0       -4.108445    1.749020    0.782926
     24          1           0       -3.127437    0.734687    1.856360
     25          1           0       -2.365150    2.020599    0.912301
     26          6           0        0.969540   -0.093682    0.012493
     27          1           0        0.823126   -0.023376    1.094934
     28          8           0        1.145922   -1.490863   -0.295752
     29          8           0        1.727359   -2.155829    0.858334
     30          1           0        2.606172   -2.373699    0.519739
 ---------------------------------------------------------------------

 SCF Done:  E(UHF) =  -501.614470283     A.U. after   13 cycles
 E2 =    -0.1999005050D+01 EUMP2 =    -0.50361347533288D+03
 E2(CBS)=      -2.193168 CBS-Int=       0.065678 OIii=      17.371722

 The electronic state is 2-A.
 Alpha  occ. eigenvalues --  -20.61804 -20.61488 -11.28177 -11.23347 -11.22475
 Alpha  occ. eigenvalues --  -11.22355 -11.21891 -11.21810 -11.21627 -11.21071
 Alpha  occ. eigenvalues --  -11.20724  -1.46382  -1.22711  -1.09802  -1.07925
 Alpha  occ. eigenvalues --   -1.01391  -0.93627  -0.92654  -0.90916  -0.82872
 Alpha  occ. eigenvalues --   -0.78125  -0.75682  -0.71602  -0.66643  -0.64071
 Alpha  occ. eigenvalues --   -0.62675  -0.61294  -0.60438  -0.59421  -0.57491
 Alpha  occ. eigenvalues --   -0.55801  -0.53999  -0.53754  -0.53435  -0.53071
 Alpha  occ. eigenvalues --   -0.52162  -0.50496  -0.49351  -0.48693  -0.47821
 Alpha  occ. eigenvalues --   -0.47091  -0.46233  -0.45401  -0.42557  -0.32090
 Alpha virt. eigenvalues --    0.03844   0.04586   0.05133   0.05224   0.06304
 Alpha virt. eigenvalues --    0.06437   0.06837   0.07665   0.07970   0.08310
 Alpha virt. eigenvalues --    0.08907   0.09289   0.09652   0.09847   0.11386

  Beta  occ. eigenvalues --  -20.61801 -20.61496 -11.28092 -11.23344 -11.22800
  Beta  occ. eigenvalues --  -11.22681 -11.21889 -11.21810 -11.20846 -11.20670
  Beta  occ. eigenvalues --  -11.19170  -1.46383  -1.22670  -1.08474  -1.07122
  Beta  occ. eigenvalues --   -1.00603  -0.93543  -0.92240  -0.88674  -0.81997
  Beta  occ. eigenvalues --   -0.77927  -0.73335  -0.71421  -0.66467  -0.63723
  Beta  occ. eigenvalues --   -0.62368  -0.60809  -0.59642  -0.59180  -0.56401
  Beta  occ. eigenvalues --   -0.55724  -0.53804  -0.53629  -0.52952  -0.52572
  Beta  occ. eigenvalues --   -0.51462  -0.50008  -0.49262  -0.48192  -0.47164
  Beta  occ. eigenvalues --   -0.46849  -0.45955  -0.45069  -0.42292
  Beta virt. eigenvalues --    0.03823   0.04573   0.05144   0.05227   0.06280
  Beta virt. eigenvalues --    0.06451   0.06791   0.07616   0.07909   0.08322
  Beta virt. eigenvalues --    0.08915   0.09234   0.09661   0.09862   0.11396

 Mulliken atomic charges:
              1
     1  C   -0.465423
     2  H    0.063717
     3  H    0.090618
     4  H    0.091364
     5  C    1.076675
     6  H    0.061586
     7  C   -0.579085
     8  H    0.112868
     9  H    0.037205
    10  C    0.042488
    11  H    0.212536
    12  C    0.655121
    13  H    0.051479
    14  C   -0.399628
    15  H    0.056461
    16  H    0.096209
    17  H    0.055676
    18  C   -0.659373
    19  H    0.072393
    20  H    0.088532
    21  H    0.062124
    22  C   -0.580066
    23  H    0.070961
    24  H    0.078453
    25  H    0.051163
    26  C   -0.525242
    27  H    0.156370
    28  O   -0.091813
    29  O   -0.246475
    30  H    0.263108
 Sum of Mulliken atomic charges =   0.00000

 Dipole moment (field-independent basis, Debye):
    X=              1.2031    Y=              1.6336    Z=             -0.4477  Tot=              2.0777
 Quadrupole moment (field-independent basis, Debye-Ang):
   XX=            -65.3423   YY=            -73.9082   ZZ=            -73.0081
   XY=             -1.7297   XZ=              0.0867   YZ=             -0.1743

 Normal termination of Gaussian 09 at Sun Feb  9 17:28:39 2014.
