 Gaussian 09, Revision C.01,
 Gaussian 09:  EM64L-G09RevC.01 23-Sep-2011

 --------------------------
 #p cbs-qb3 opt=calcfc freq
 --------------------------

 (Enter /usr/caen/gaussian-09revc/g09/l101.exe)
 --------------------------------------------
 C9H18OOH_2_26_e using cbs-qb3 to cal. energy
 --------------------------------------------
 Charge =  0 Multiplicity = 2

 SCF Done:  E(UB3LYP) =  -504.850165500     A.U. after   15 cycles
 SCF Done:  E(UB3LYP) =  -504.850287469     A.U. after   12 cycles
 SCF Done:  E(UB3LYP) =  -504.850295306     A.U. after   11 cycles
 SCF Done:  E(UB3LYP) =  -504.850295923     A.U. after    9 cycles
 Optimization completed.
    -- Stationary point found.
 Normal termination of Gaussian 09 at Thu Feb 20 19:24:46 2014.

 ---------------------------------------------------------
 #P Geom=AllCheck Guess=TCheck SCRF=Check B3LYP/CBSB7 Freq
 ---------------------------------------------------------

 Structure from the checkpoint file:  C9H18OOH_2_26_e.chk
 --------------------------------------------
 C9H18OOH_2_26_e using cbs-qb3 to cal. energy
 --------------------------------------------
 Charge =  0 Multiplicity = 2

 SCF Done:  E(UB3LYP) =  -504.850295923     A.U. after    1 cycles

  Exact polarizability: 133.291   1.149 110.070   2.141  -1.642  99.841
 Approx polarizability: 153.371   0.770 159.449  -0.590   0.259 150.237

                     1                      2                      3
                     A                      A                      A
 Frequencies --    18.7458                38.0867                56.8851
 Red. masses --     2.7458                 3.3470                 2.2825
 Frc consts  --     0.0006                 0.0029                 0.0044
 IR Inten    --     0.0824                 0.1843                 0.9315

                     4                      5                      6
                     A                      A                      A
 Frequencies --    69.3370               124.4500               164.4515
 Red. masses --     3.4183                 2.4473                 2.6917
 Frc consts  --     0.0097                 0.0223                 0.0429
 IR Inten    --     0.7615                 1.4551                 2.4909

                     7                      8                      9
                     A                      A                      A
 Frequencies --   189.4195               208.6688               223.8880
 Red. masses --     1.1914                 2.1143                 1.2439
 Frc consts  --     0.0252                 0.0542                 0.0367
 IR Inten    --     0.7760                15.8735                27.6147

                    10                     11                     12
                     A                      A                      A
 Frequencies --   229.1095               234.2038               257.4227
 Red. masses --     1.0398                 2.0867                 1.2061
 Frc consts  --     0.0322                 0.0674                 0.0471
 IR Inten    --     0.0150                30.1614                35.7934

                    13                     14                     15
                     A                      A                      A
 Frequencies --   261.3171               279.6563               327.3016
 Red. masses --     1.1544                 2.3653                 1.7689
 Frc consts  --     0.0464                 0.1090                 0.1116
 IR Inten    --    17.1850                 1.2320                 5.3705

                    16                     17                     18
                     A                      A                      A
 Frequencies --   340.5504               363.3497               378.8612
 Red. masses --     2.4780                 2.5131                 2.3543
 Frc consts  --     0.1693                 0.1955                 0.1991
 IR Inten    --     4.8051                 0.5666                 1.3514

                    19                     20                     21
                     A                      A                      A
 Frequencies --   416.4390               477.4210               507.7310
 Red. masses --     2.4964                 2.6676                 2.3656
 Frc consts  --     0.2551                 0.3582                 0.3593
 IR Inten    --     3.2520                 3.9542                14.3371

                    22                     23                     24
                     A                      A                      A
 Frequencies --   526.8535               556.0949               747.5377
 Red. masses --     3.2979                 2.8675                 1.6282
 Frc consts  --     0.5393                 0.5224                 0.5361
 IR Inten    --     3.0290                 3.2470                 2.1540

                    25                     26                     27
                     A                      A                      A
 Frequencies --   774.6569               833.8633               864.2130
 Red. masses --     2.5748                 2.5646                 2.7489
 Frc consts  --     0.9104                 1.0507                 1.2096
 IR Inten    --     2.1094                 3.7837                10.9482

                    28                     29                     30
                     A                      A                      A
 Frequencies --   915.4403               920.5090               927.2491
 Red. masses --     2.0327                 3.7928                 1.2124
 Frc consts  --     1.0036                 1.8935                 0.6142
 IR Inten    --     0.9642                 4.3935                 0.8689

                    31                     32                     33
                     A                      A                      A
 Frequencies --   935.0054               947.3417               958.6156
 Red. masses --     1.9837                 1.6069                 1.6417
 Frc consts  --     1.0218                 0.8497                 0.8889
 IR Inten    --     0.4705                 0.9274                 1.3284

                    34                     35                     36
                     A                      A                      A
 Frequencies --   983.1113              1026.5456              1050.3004
 Red. masses --     1.6142                 1.4608                 2.4286
 Frc consts  --     0.9192                 0.9070                 1.5784
 IR Inten    --     0.5923                 0.4508                 1.0332

                    37                     38                     39
                     A                      A                      A
 Frequencies --  1084.5624              1113.5888              1127.4231
 Red. masses --     2.1241                 2.0314                 1.5511
 Frc consts  --     1.4721                 1.4842                 1.1616
 IR Inten    --     2.7337                 5.2783                 3.7553

                    40                     41                     42
                     A                      A                      A
 Frequencies --  1160.4483              1188.3829              1200.9147
 Red. masses --     1.7822                 1.7104                 2.3656
 Frc consts  --     1.4140                 1.4232                 2.0101
 IR Inten    --     3.0924                 3.7825                19.5085

                    43                     44                     45
                     A                      A                      A
 Frequencies --  1231.3303              1262.7493              1278.0468
 Red. masses --     1.8019                 1.7740                 1.7729
 Frc consts  --     1.6096                 1.6666                 1.7062
 IR Inten    --    20.9207                 7.1391                11.3469

                    46                     47                     48
                     A                      A                      A
 Frequencies --  1321.9524              1332.0286              1343.3142
 Red. masses --     1.3359                 1.2762                 1.2432
 Frc consts  --     1.3755                 1.3341                 1.3217
 IR Inten    --     7.9670                 7.6007                17.3752

                    49                     50                     51
                     A                      A                      A
 Frequencies --  1358.6996              1385.9518              1394.2845
 Red. masses --     1.1701                 1.3192                 1.2748
 Frc consts  --     1.2727                 1.4930                 1.4602
 IR Inten    --    42.4680                 4.9154                 5.7752

                    52                     53                     54
                     A                      A                      A
 Frequencies --  1395.4196              1408.2511              1415.0068
 Red. masses --     1.3765                 1.3716                 1.2622
 Frc consts  --     1.5792                 1.6026                 1.4890
 IR Inten    --    13.7017                 4.1812                 7.3976

                    55                     56                     57
                     A                      A                      A
 Frequencies --  1424.9664              1468.7892              1478.7895
 Red. masses --     1.5406                 1.0663                 1.0649
 Frc consts  --     1.8431                 1.3554                 1.3721
 IR Inten    --     3.0009                 0.7643                 1.7997

                    58                     59                     60
                     A                      A                      A
 Frequencies --  1489.0746              1489.4070              1491.0386
 Red. masses --     1.0502                 1.0744                 1.0461
 Frc consts  --     1.3720                 1.4043                 1.3703
 IR Inten    --     0.2497                 2.2349                 3.2908

                    61                     62                     63
                     A                      A                      A
 Frequencies --  1492.6445              1496.9728              1503.4014
 Red. masses --     1.0533                 1.0535                 1.0536
 Frc consts  --     1.3827                 1.3909                 1.4030
 IR Inten    --     5.9294                 1.0182                 6.7778

                    64                     65                     66
                     A                      A                      A
 Frequencies --  1510.8241              1517.7632              2923.2213
 Red. masses --     1.0587                 1.0543                 1.0720
 Frc consts  --     1.4238                 1.4310                 5.3972
 IR Inten    --     9.4306                10.0521                29.6087

                    67                     68                     69
                     A                      A                      A
 Frequencies --  2985.3858              3013.1311              3018.0165
 Red. masses --     1.0824                 1.0347                 1.0370
 Frc consts  --     5.6839                 5.5346                 5.5651
 IR Inten    --    16.1197                31.2391                33.9651

                    70                     71                     72
                     A                      A                      A
 Frequencies --  3018.6496              3029.8169              3033.1144
 Red. masses --     1.0696                 1.0696                 1.0411
 Frc consts  --     5.7424                 5.7851                 5.6432
 IR Inten    --     7.2445                16.1000                28.3191

                    73                     74                     75
                     A                      A                      A
 Frequencies --  3042.9861              3073.1729              3077.0122
 Red. masses --     1.0365                 1.1017                 1.0970
 Frc consts  --     5.6547                 6.1305                 6.1196
 IR Inten    --    20.2277                 0.7168                13.3989

                    76                     77                     78
                     A                      A                      A
 Frequencies --  3079.5832              3089.1618              3091.3673
 Red. masses --     1.1007                 1.1016                 1.1015
 Frc consts  --     6.1503                 6.1936                 6.2019
 IR Inten    --    79.7193                31.8476                40.6496

                    79                     80                     81
                     A                      A                      A
 Frequencies --  3096.3165              3108.4804              3113.2087
 Red. masses --     1.1020                 1.1020                 1.1010
 Frc consts  --     6.2247                 6.2740                 6.2874
 IR Inten    --    14.1483                38.9844                21.9503

                    82                     83                     84
                     A                      A                      A
 Frequencies --  3119.1648              3121.9898              3780.6844
 Red. masses --     1.0864                 1.1010                 1.0688
 Frc consts  --     6.2277                 6.3228                 9.0011
 IR Inten    --    29.6848                24.3569                40.4986

 - Thermochemistry -
 -------------------
 Temperature   298.150 Kelvin.  Pressure   1.00000 Atm.
 Atom     1 has atomic number  6 and mass  12.00000

 Molecular mass:   159.13850 amu.
 Principal axes and moments of inertia in atomic units:
                           1         2         3
     Eigenvalues --   911.910154217.530784501.07421
           X            0.99992   0.00844   0.00900
           Y           -0.00789   0.99818  -0.05976
           Z           -0.00949   0.05968   0.99817
 This molecule is an asymmetric top.
 Rotational symmetry number  1.
 Warning -- assumption of classical behavior for rotation
           may cause significant error
 Rotational temperatures (Kelvin)      0.09498     0.02054     0.01924
 Rotational constants (GHZ):           1.97908     0.42791     0.40096
 Zero-point vibrational energy     695718.9 (Joules/Mol)
                                  166.28082 (Kcal/Mol)
 Warning -- explicit consideration of  23 degrees of freedom as
           vibrations may cause significant error
 Vibrational temperatures:     26.97    54.80    81.84    99.76   179.06
          (Kelvin)            236.61   272.53   300.23   322.12   329.64
                              336.97   370.37   375.98   402.36   470.91
                              489.98   522.78   545.10   599.16   686.90
                              730.51   758.02   800.10  1075.54  1114.56
                             1199.74  1243.41  1317.11  1324.41  1334.10
                             1345.26  1363.01  1379.23  1414.48  1476.97
                             1511.15  1560.44  1602.20  1622.11  1669.62
                             1709.82  1727.85  1771.61  1816.81  1838.82
                             1901.99  1916.49  1932.73  1954.86  1994.07
                             2006.06  2007.70  2026.16  2035.88  2050.21
                             2113.26  2127.65  2142.44  2142.92  2145.27
                             2147.58  2153.81  2163.06  2173.74  2183.72
                             4205.86  4295.30  4335.22  4342.25  4343.16
                             4359.23  4363.97  4378.17  4421.60  4427.13
                             4430.83  4444.61  4447.78  4454.90  4472.40
                             4479.21  4487.78  4491.84  5439.55

 Zero-point correction=                           0.264985 (Hartree/Particle)
 Thermal correction to Energy=                    0.280151
 Thermal correction to Enthalpy=                  0.281095
 Thermal correction to Gibbs Free Energy=         0.221476
 Sum of electronic and zero-point Energies=           -504.585311
 Sum of electronic and thermal Energies=              -504.570145
 Sum of electronic and thermal Enthalpies=            -504.569201
 Sum of electronic and thermal Free Energies=         -504.628820

                     E (Thermal)             CV                S
                      KCal/Mol        Cal/Mol-Kelvin    Cal/Mol-Kelvin
 Total                  175.797             54.809            125.478
 Electronic               0.000              0.000              1.377
 Translational            0.889              2.981             41.103
 Rotational               0.889              2.981             31.227
 Vibrational            174.020             48.847             51.771
 Vibration     1          0.593              1.986              6.763
 Vibration     2          0.594              1.982              5.356
 Vibration     3          0.596              1.975              4.562
 Vibration     4          0.598              1.969              4.172
 Vibration     5          0.610              1.929              3.030
 Vibration     6          0.623              1.886              2.498
 Vibration     7          0.633              1.854              2.234
 Vibration     8          0.642              1.827              2.055
 Vibration     9          0.649              1.805              1.927
 Vibration    10          0.652              1.797              1.886
 Vibration    11          0.654              1.789              1.846
 Vibration    12          0.667              1.750              1.679
 Vibration    13          0.669              1.744              1.653
 Vibration    14          0.680              1.711              1.536
 Vibration    15          0.711              1.621              1.273
 Vibration    16          0.720              1.594              1.210
 Vibration    17          0.737              1.548              1.108
 Vibration    18          0.749              1.515              1.044
 Vibration    19          0.780              1.435              0.904
 Vibration    20          0.834              1.300              0.717
 Vibration    21          0.863              1.233              0.639
 Vibration    22          0.882              1.191              0.594
 Vibration    23          0.912              1.126              0.532

 Normal termination of Gaussian 09 at Thu Feb 20 19:34:12 2014.

 -----------------------------------------------------------
 #P Geom=AllCheck Guess=TCheck SCRF=Check CCSD(T)/6-31+G(d')
 -----------------------------------------------------------

 Structure from the checkpoint file:  C9H18OOH_2_26_e.chk
 --------------------------------------------
 C9H18OOH_2_26_e using cbs-qb3 to cal. energy
 --------------------------------------------
 Charge =  0 Multiplicity = 2

 SCF Done:  E(UHF) =  -501.452607368     A.U. after   20 cycles
 E2 =    -0.1572177399D+01 EUMP2 =    -0.50302478476712D+03
 CCSD(T)
 CCSD(T)= -0.50319625439D+03
 03.1147836\MP4SDQ=-503.1401333\CCSD=-503.1424369\CCSD(T)=-503.1962544\
 Normal termination of Gaussian 09 at Fri Feb 21 04:10:02 2014.

 -----------------------------------------------------
 #P Geom=AllCheck Guess=TCheck SCRF=Check MP4SDQ/CBSB4
 -----------------------------------------------------

 Structure from the checkpoint file:  C9H18OOH_2_26_e.chk
 --------------------------------------------
 C9H18OOH_2_26_e using cbs-qb3 to cal. energy
 --------------------------------------------
 Charge =  0 Multiplicity = 2

 SCF Done:  E(UHF) =  -501.484544104     A.U. after   13 cycles
 E2 =    -0.1697218322D+01 EUMP2 =    -0.50318176242580D+03
 Normal termination of Gaussian 09 at Fri Feb 21 04:32:33 2014.

 ----------------------------------------------------------------------
 #P Geom=AllCheck Guess=TCheck SCRF=Check MP2/CBSB3 CBSExtrap=(NMin=10,
 MinPop)
 ----------------------------------------------------------------------

 Structure from the checkpoint file:  C9H18OOH_2_26_e.chk
 --------------------------------------------
 C9H18OOH_2_26_e using cbs-qb3 to cal. energy
 --------------------------------------------
 Charge =  0 Multiplicity = 2

                         Standard orientation:
 ---------------------------------------------------------------------
 Center     Atomic      Atomic             Coordinates (Angstroms)
 Number     Number       Type             X           Y           Z
 ---------------------------------------------------------------------
      1          6           0        3.248289   -0.054598    1.136934
      2          1           0        3.153368   -1.097512    1.443677
      3          1           0        3.205405    0.567919    2.034355
      4          1           0        4.225598    0.088402    0.667805
      5          6           0        0.748485    0.074741    0.798642
      6          1           0        0.721278   -0.963617    1.138694
      7          1           0        0.671214    0.701659    1.694920
      8          6           0       -0.461660    0.322862   -0.113242
      9          1           0       -0.337681   -0.249986   -1.039981
     10          1           0       -0.475051    1.381298   -0.426469
     11          6           0       -1.760382   -0.030636    0.534634
     12          1           0       -1.838460    0.051370    1.617590
     13          6           0       -3.030881   -0.189158   -0.244818
     14          1           0       -2.779694   -0.648752   -1.211015
     15          6           0       -4.025950   -1.110670    0.478853
     16          1           0       -4.302957   -0.691802    1.452306
     17          1           0       -4.944115   -1.235539   -0.102793
     18          1           0       -3.594272   -2.099828    0.651104
     19          6           0        2.308935    1.761888   -0.338011
     20          1           0        2.165934    2.463081    0.487698
     21          1           0        3.314465    1.900821   -0.740958
     22          1           0        1.591351    1.998076   -1.124431
     23          6           0       -3.687240    1.179614   -0.552555
     24          1           0       -4.587757    1.050624   -1.161911
     25          1           0       -3.975419    1.686095    0.374032
     26          1           0       -3.003801    1.836257   -1.097004
     27          6           0        2.128872    0.325292    0.162679
     28          8           0        2.265485   -0.431114   -1.070146
     29          8           0        2.106429   -1.850581   -0.788874
     30          1           0        3.004478   -2.161020   -0.964154
 ---------------------------------------------------------------------

 SCF Done:  E(UHF) =  -501.621465448     A.U. after   14 cycles
 E2 =    -0.2000264898D+01 EUMP2 =    -0.50362173034625D+03
 E2(CBS)=      -2.194363 CBS-Int=       0.065634 OIii=      17.372520

 The electronic state is 2-A.
 Alpha  occ. eigenvalues --  -20.61676 -20.61468 -11.29145 -11.22097 -11.21723
 Alpha  occ. eigenvalues --  -11.21669 -11.21660 -11.21631 -11.21231 -11.20830
 Alpha  occ. eigenvalues --  -11.20576  -1.46224  -1.22763  -1.09840  -1.06171
 Alpha  occ. eigenvalues --   -1.01222  -0.94371  -0.92425  -0.92088  -0.82597
 Alpha  occ. eigenvalues --   -0.75924  -0.75474  -0.70815  -0.65978  -0.63865
 Alpha  occ. eigenvalues --   -0.62469  -0.61322  -0.60187  -0.58886  -0.57390
 Alpha  occ. eigenvalues --   -0.55099  -0.54776  -0.53675  -0.53178  -0.52940
 Alpha  occ. eigenvalues --   -0.51291  -0.50879  -0.49958  -0.48279  -0.47021
 Alpha  occ. eigenvalues --   -0.46430  -0.46137  -0.45198  -0.42825  -0.32099
 Alpha virt. eigenvalues --    0.03863   0.04589   0.05123   0.05392   0.06378
 Alpha virt. eigenvalues --    0.06551   0.06801   0.07550   0.07824   0.08484
 Alpha virt. eigenvalues --    0.08589   0.09263   0.09561   0.09806   0.11772

  Beta  occ. eigenvalues --  -20.61677 -20.61465 -11.29153 -11.22404 -11.21719
  Beta  occ. eigenvalues --  -11.21668 -11.21595 -11.21531 -11.20603 -11.20502
  Beta  occ. eigenvalues --  -11.19202  -1.46221  -1.22759  -1.07905  -1.05940
  Beta  occ. eigenvalues --   -1.00668  -0.94361  -0.92006  -0.89626  -0.81653
  Beta  occ. eigenvalues --   -0.75779  -0.73193  -0.70709  -0.65743  -0.63789
  Beta  occ. eigenvalues --   -0.61995  -0.60513  -0.59767  -0.58269  -0.56474
  Beta  occ. eigenvalues --   -0.54914  -0.54565  -0.53439  -0.53004  -0.52524
  Beta  occ. eigenvalues --   -0.50969  -0.50359  -0.49478  -0.47481  -0.46496
  Beta  occ. eigenvalues --   -0.46046  -0.45872  -0.44928  -0.42592
  Beta virt. eigenvalues --    0.03874   0.04577   0.05116   0.05411   0.06314
  Beta virt. eigenvalues --    0.06513   0.06793   0.07463   0.07810   0.08496
  Beta virt. eigenvalues --    0.08615   0.09226   0.09572   0.09813   0.11519

 Mulliken atomic charges:
              1
     1  C   -0.089634
     2  H    0.089588
     3  H    0.067422
     4  H    0.106510
     5  C    0.074442
     6  H    0.091747
     7  H    0.080265
     8  C   -0.809527
     9  H    0.077119
    10  H    0.030405
    11  C   -0.178765
    12  H    0.144863
    13  C    0.938329
    14  H    0.058607
    15  C   -0.370799
    16  H    0.057795
    17  H    0.093438
    18  H    0.052398
    19  C   -0.632172
    20  H    0.062261
    21  H    0.107058
    22  H    0.115971
    23  C   -0.648133
    24  H    0.086738
    25  H    0.060467
    26  H    0.070288
    27  C    0.364644
    28  O   -0.127720
    29  O   -0.243100
    30  H    0.269497
 Sum of Mulliken atomic charges =   0.00000

 Dipole moment (field-independent basis, Debye):
    X=              1.3419    Y=              0.6030    Z=              1.0847  Tot=              1.8278
 Quadrupole moment (field-independent basis, Debye-Ang):
   XX=            -65.2656   YY=            -70.5490   ZZ=            -72.8951
   XY=             -2.2257   XZ=              1.8806   YZ=              0.7656

 Normal termination of Gaussian 09 at Fri Feb 21 05:30:08 2014.
