 Gaussian 09, Revision C.01,

 --------------------------------------------------
 #p UB3LYP/6-311++G(d,p) guess=mix stable=(opt,xqc)
 --------------------------------------------------

 (Enter /usr/caen/gaussian-09revc/g09/l101.exe)
 --------------------------------------------
 C9H18OOH_2_26_d using cbs-qb3 to cal. energy
 --------------------------------------------
 Charge =  0 Multiplicity = 2

 SCF Done:  E(UB3LYP) =  -504.859635535     A.U. after   17 cycles
 Normal termination of Gaussian 09 at Sat Feb  8 15:12:09 2014.
 Gaussian 09:  EM64L-G09RevC.01 23-Sep-2011

 ------------------------------------------------
 #p cbs-qb3 opt=calcfc freq geom=check guess=read
 ------------------------------------------------

 ---------------------
 optimization and freq
 ---------------------
 Structure from the checkpoint file:  C9H18OOH_2_26_d.chk
 Charge =  0 Multiplicity = 2

 SCF Done:  E(UB3LYP) =  -504.851648208     A.U. after   10 cycles
 SCF Done:  E(UB3LYP) =  -504.851770601     A.U. after   12 cycles
 SCF Done:  E(UB3LYP) =  -504.851746929     A.U. after   12 cycles
 SCF Done:  E(UB3LYP) =  -504.851774648     A.U. after   12 cycles
 SCF Done:  E(UB3LYP) =  -504.851774502     A.U. after    9 cycles
 SCF Done:  E(UB3LYP) =  -504.851774356     A.U. after    8 cycles
 Optimization completed.
    -- Stationary point found.
 Normal termination of Gaussian 09 at Sat Feb  8 15:36:32 2014.

 ---------------------------------------------------------
 #P Geom=AllCheck Guess=TCheck SCRF=Check B3LYP/CBSB7 Freq
 ---------------------------------------------------------

 Structure from the checkpoint file:  C9H18OOH_2_26_d.chk
 ---------------------
 optimization and freq
 ---------------------
 Charge =  0 Multiplicity = 2

 SCF Done:  E(UB3LYP) =  -504.851774356     A.U. after    1 cycles

  Exact polarizability: 132.350  -2.930 108.750  -1.372  -2.327 101.689
 Approx polarizability: 154.537  -2.042 159.630  -0.188  -7.251 151.979

                     1                      2                      3
                     A                      A                      A
 Frequencies --    21.5317                32.5814                51.9790
 Red. masses --     2.7411                 3.2402                 3.9882
 Frc consts  --     0.0007                 0.0020                 0.0063
 IR Inten    --     0.0519                 0.5640                 0.8378

                     4                      5                      6
                     A                      A                      A
 Frequencies --   103.6038               144.9940               181.5623
 Red. masses --     2.4725                 3.5319                 3.0530
 Frc consts  --     0.0156                 0.0437                 0.0593
 IR Inten    --     0.3840                 1.5075                 3.4223

                     7                      8                      9
                     A                      A                      A
 Frequencies --   193.7641               220.4942               226.1625
 Red. masses --     1.1361                 1.3225                 2.0067
 Frc consts  --     0.0251                 0.0379                 0.0605
 IR Inten    --     2.7117                 3.2147                27.1133

                    10                     11                     12
                     A                      A                      A
 Frequencies --   228.0958               250.0539               260.1210
 Red. masses --     1.0561                 1.2689                 1.2728
 Frc consts  --     0.0324                 0.0467                 0.0507
 IR Inten    --    20.7477                12.9182                13.3126

                    13                     14                     15
                     A                      A                      A
 Frequencies --   267.8598               315.0614               334.0197
 Red. masses --     1.1901                 3.2654                 2.3950
 Frc consts  --     0.0503                 0.1910                 0.1574
 IR Inten    --    39.1078                 2.5647                 6.1819

                    16                     17                     18
                     A                      A                      A
 Frequencies --   364.2524               376.9765               386.2376
 Red. masses --     2.4007                 2.0226                 2.4033
 Frc consts  --     0.1877                 0.1694                 0.2112
 IR Inten    --     0.6440                 1.8355                 0.9496

                    19                     20                     21
                     A                      A                      A
 Frequencies --   431.4888               446.4717               462.3859
 Red. masses --     1.5417                 1.9571                 2.8922
 Frc consts  --     0.1691                 0.2299                 0.3643
 IR Inten    --    11.3628                 1.4563                 2.1427

                    22                     23                     24
                     A                      A                      A
 Frequencies --   525.2005               598.2664               739.7296
 Red. masses --     3.5581                 3.3657                 4.3222
 Frc consts  --     0.5782                 0.7098                 1.3935
 IR Inten    --     5.0278                11.9500                 4.1258

                    25                     26                     27
                     A                      A                      A
 Frequencies --   805.9798               841.9489               854.7782
 Red. masses --     2.5402                 1.9051                 2.4520
 Frc consts  --     0.9722                 0.7957                 1.0556
 IR Inten    --     2.6234                 2.3647                 9.8653

                    28                     29                     30
                     A                      A                      A
 Frequencies --   869.0209               918.1200               925.6728
 Red. masses --     1.8479                 4.4758                 1.8205
 Frc consts  --     0.8222                 2.2229                 0.9191
 IR Inten    --     1.5715                 4.5020                 1.3738

                    31                     32                     33
                     A                      A                      A
 Frequencies --   932.2313               937.6856               964.9153
 Red. masses --     1.4171                 1.5920                 1.6363
 Frc consts  --     0.7256                 0.8247                 0.8976
 IR Inten    --     0.9516                 0.5316                 2.0017

                    34                     35                     36
                     A                      A                      A
 Frequencies --   967.8005               997.8150              1028.3632
 Red. masses --     1.6158                 1.7580                 1.5087
 Frc consts  --     0.8917                 1.0312                 0.9401
 IR Inten    --     2.3344                 0.1740                 0.7462

                    37                     38                     39
                     A                      A                      A
 Frequencies --  1096.0517              1119.6317              1148.0598
 Red. masses --     1.4151                 1.7989                 2.1578
 Frc consts  --     1.0016                 1.3286                 1.6757
 IR Inten    --     1.9998                 0.9909                 2.5159

                    40                     41                     42
                     A                      A                      A
 Frequencies --  1185.6612              1188.8252              1194.7295
 Red. masses --     2.1204                 1.8885                 2.1635
 Frc consts  --     1.7563                 1.5726                 1.8195
 IR Inten    --    20.2264                 8.4212                14.0627

                    43                     44                     45
                     A                      A                      A
 Frequencies --  1230.0627              1242.3316              1277.8675
 Red. masses --     2.1368                 1.5680                 1.4227
 Frc consts  --     1.9049                 1.4259                 1.3688
 IR Inten    --    19.8157                 9.6973                10.9398

                    46                     47                     48
                     A                      A                      A
 Frequencies --  1312.5192              1329.7315              1357.0577
 Red. masses --     1.3237                 1.3840                 1.1849
 Frc consts  --     1.3435                 1.4418                 1.2856
 IR Inten    --     0.4349                10.6353                48.3311

                    49                     50                     51
                     A                      A                      A
 Frequencies --  1362.5732              1367.7031              1393.1108
 Red. masses --     1.3822                 1.3630                 1.3056
 Frc consts  --     1.5120                 1.5022                 1.4929
 IR Inten    --     3.2393                 0.9489                16.0660

                    52                     53                     54
                     A                      A                      A
 Frequencies --  1400.6136              1410.8228              1414.8280
 Red. masses --     1.2647                 1.2775                 1.4044
 Frc consts  --     1.4617                 1.4982                 1.6564
 IR Inten    --     9.6993                18.0701                 4.0525

                    55                     56                     57
                     A                      A                      A
 Frequencies --  1424.2163              1463.1353              1471.2534
 Red. masses --     1.3924                 1.0923                 1.1094
 Frc consts  --     1.6640                 1.3777                 1.4148
 IR Inten    --     2.2285                 3.5109                 1.4478

                    58                     59                     60
                     A                      A                      A
 Frequencies --  1482.5800              1488.7889              1490.7114
 Red. masses --     1.0661                 1.0422                 1.0462
 Frc consts  --     1.3807                 1.3610                 1.3698
 IR Inten    --     4.7363                 0.2763                 1.3623

                    61                     62                     63
                     A                      A                      A
 Frequencies --  1494.4159              1495.6053              1505.6869
 Red. masses --     1.0535                 1.0539                 1.0476
 Frc consts  --     1.3862                 1.3889                 1.3993
 IR Inten    --     3.4133                 3.7003                 8.3892

                    64                     65                     66
                     A                      A                      A
 Frequencies --  1510.6042              1514.9397              2934.8060
 Red. masses --     1.0522                 1.0531                 1.0720
 Frc consts  --     1.4146                 1.4240                 5.4401
 IR Inten    --     9.0617                 7.2474                23.3599

                    67                     68                     69
                     A                      A                      A
 Frequencies --  2985.6277              3012.1138              3012.3215
 Red. masses --     1.0818                 1.0391                 1.0549
 Frc consts  --     5.6816                 5.5547                 5.6396
 IR Inten    --    14.7767                11.6328                42.5068

                    70                     71                     72
                     A                      A                      A
 Frequencies --  3016.1433              3022.5591              3033.5256
 Red. masses --     1.0435                 1.0772                 1.0359
 Frc consts  --     5.5929                 5.7981                 5.6165
 IR Inten    --    19.6587                31.2270                20.7945

                    73                     74                     75
                     A                      A                      A
 Frequencies --  3040.8775              3054.9870              3070.5949
 Red. masses --     1.0353                 1.1017                 1.1006
 Frc consts  --     5.6404                 6.0583                 6.1140
 IR Inten    --    18.1580                14.6296                 6.3200

                    76                     77                     78
                     A                      A                      A
 Frequencies --  3077.8323              3082.6343              3087.1405
 Red. masses --     1.1000                 1.1019                 1.1010
 Frc consts  --     6.1392                 6.1693                 6.1823
 IR Inten    --    79.1477                35.1338                47.5589

                    79                     80                     81
                     A                      A                      A
 Frequencies --  3097.5648              3108.0766              3115.7585
 Red. masses --     1.1016                 1.1018                 1.1009
 Frc consts  --     6.2276                 6.2711                 6.2969
 IR Inten    --    11.8296                34.4096                17.0771

                    82                     83                     84
                     A                      A                      A
 Frequencies --  3118.8082              3132.2614              3780.5037
 Red. masses --     1.1016                 1.0870                 1.0688
 Frc consts  --     6.3135                 6.2834                 8.9998
 IR Inten    --    19.5571                31.3750                40.4655

 - Thermochemistry -
 -------------------
 Temperature   298.150 Kelvin.  Pressure   1.00000 Atm.
 Atom     1 has atomic number  6 and mass  12.00000

 Molecular mass:   159.13850 amu.
 Principal axes and moments of inertia in atomic units:
                           1         2         3
     Eigenvalues --   939.484573633.727083875.53981
           X            0.99992  -0.01287  -0.00061
           Y            0.01288   0.99989   0.00756
           Z            0.00051  -0.00756   0.99997
 This molecule is an asymmetric top.
 Rotational symmetry number  1.
 Warning -- assumption of classical behavior for rotation
           may cause significant error
 Rotational temperatures (Kelvin)      0.09219     0.02384     0.02235
 Rotational constants (GHZ):           1.92099     0.49666     0.46567
 Zero-point vibrational energy     696020.1 (Joules/Mol)
                                  166.35280 (Kcal/Mol)
 Warning -- explicit consideration of  23 degrees of freedom as
           vibrations may cause significant error
 Vibrational temperatures:     30.98    46.88    74.79   149.06   208.61
          (Kelvin)            261.23   278.78   317.24   325.40   328.18
                              359.77   374.26   385.39   453.30   480.58
                              524.08   542.38   555.71   620.82   642.37
                              665.27   755.65   860.77  1064.30  1159.62
                             1211.38  1229.83  1250.33  1320.97  1331.84
                             1341.27  1349.12  1388.30  1392.45  1435.63
                             1479.58  1576.97  1610.90  1651.80  1705.90
                             1710.45  1718.95  1769.78  1787.44  1838.56
                             1888.42  1913.18  1952.50  1960.44  1967.82
                             2004.37  2015.17  2029.86  2035.62  2049.13
                             2105.12  2116.80  2133.10  2142.03  2144.80
                             2150.13  2151.84  2166.34  2173.42  2179.66
                             4222.53  4295.65  4333.75  4334.05  4339.55
                             4348.78  4364.56  4375.14  4395.44  4417.90
                             4428.31  4435.22  4441.70  4456.70  4471.82
                             4482.88  4487.26  4506.62  5439.29

 Zero-point correction=                           0.265100 (Hartree/Particle)
 Thermal correction to Energy=                    0.280021
 Thermal correction to Enthalpy=                  0.280965
 Thermal correction to Gibbs Free Energy=         0.222278
 Sum of electronic and zero-point Energies=           -504.586674
 Sum of electronic and thermal Energies=              -504.571754
 Sum of electronic and thermal Enthalpies=            -504.570810
 Sum of electronic and thermal Free Energies=         -504.629496

                     E (Thermal)             CV                S
                      KCal/Mol        Cal/Mol-Kelvin    Cal/Mol-Kelvin
 Total                  175.716             54.644            123.517
 Electronic               0.000              0.000              1.377
 Translational            0.889              2.981             41.103
 Rotational               0.889              2.981             30.960
 Vibrational            173.938             48.683             50.077
 Vibration     1          0.593              1.985              6.488
 Vibration     2          0.594              1.983              5.666
 Vibration     3          0.596              1.977              4.741
 Vibration     4          0.605              1.946              3.385
 Vibration     5          0.616              1.908              2.737
 Vibration     6          0.630              1.865              2.312
 Vibration     7          0.635              1.849              2.192
 Vibration     8          0.647              1.810              1.955
 Vibration     9          0.650              1.801              1.909
 Vibration    10          0.651              1.798              1.894
 Vibration    11          0.663              1.763              1.730
 Vibration    12          0.668              1.746              1.661
 Vibration    13          0.673              1.732              1.610
 Vibration    14          0.702              1.645              1.336
 Vibration    15          0.716              1.608              1.241
 Vibration    16          0.738              1.546              1.104
 Vibration    17          0.748              1.519              1.051
 Vibration    18          0.755              1.500              1.015
 Vibration    19          0.793              1.402              0.854
 Vibration    20          0.806              1.369              0.807
 Vibration    21          0.820              1.333              0.759
 Vibration    22          0.880              1.194              0.598
 Vibration    23          0.956              1.035              0.453

 Optimization completed.
    -- Stationary point found.
 Normal termination of Gaussian 09 at Sat Feb  8 15:50:02 2014.

 -----------------------------------------------------------
 #P Geom=AllCheck Guess=TCheck SCRF=Check CCSD(T)/6-31+G(d')
 -----------------------------------------------------------

 Structure from the checkpoint file:  C9H18OOH_2_26_d.chk
 ---------------------
 optimization and freq
 ---------------------
 Charge =  0 Multiplicity = 2

 SCF Done:  E(UHF) =  -501.452746311     A.U. after   21 cycles
 E2 =    -0.1574466836D+01 EUMP2 =    -0.50302721314681D+03
 CCSD(T)
 CCSD(T)= -0.50319862459D+03
 3.1422142\CCSD=-503.1444944\CCSD(T)=-503.1986246\S2=0.764661\S2-1=0.75
 Normal termination of Gaussian 09 at Sun Feb  9 02:50:14 2014.

 -----------------------------------------------------
 #P Geom=AllCheck Guess=TCheck SCRF=Check MP4SDQ/CBSB4
 -----------------------------------------------------

 Structure from the checkpoint file:  C9H18OOH_2_26_d.chk
 ---------------------
 optimization and freq
 ---------------------
 Charge =  0 Multiplicity = 2

 SCF Done:  E(UHF) =  -501.484632042     A.U. after   18 cycles
 E2 =    -0.1699319583D+01 EUMP2 =    -0.50318395162412D+03
 Normal termination of Gaussian 09 at Sun Feb  9 03:23:15 2014.

 ----------------------------------------------------------------------
 #P Geom=AllCheck Guess=TCheck SCRF=Check MP2/CBSB3 CBSExtrap=(NMin=10,
 MinPop)
 ----------------------------------------------------------------------

 Structure from the checkpoint file:  C9H18OOH_2_26_d.chk
 ---------------------
 optimization and freq
 ---------------------
 Charge =  0 Multiplicity = 2

                         Standard orientation:
 ---------------------------------------------------------------------
 Center     Atomic      Atomic             Coordinates (Angstroms)
 Number     Number       Type             X           Y           Z
 ---------------------------------------------------------------------
      1          6           0        3.317786   -0.253495   -0.761874
      2          1           0        3.144888    0.279670   -1.698008
      3          1           0        3.629823   -1.272682   -1.003006
      4          1           0        4.134375    0.235586   -0.223437
      5          6           0        0.863893   -0.912047   -0.683561
      6          1           0        0.741122   -0.326373   -1.600980
      7          1           0        1.191326   -1.914605   -0.982813
      8          6           0       -0.434943   -0.993331    0.046531
      9          1           0       -0.648096   -1.888159    0.626479
     10          6           0       -1.360601    0.168054    0.193975
     11          1           0       -1.210576    0.870673   -0.635887
     12          1           0       -1.087400    0.741960    1.095897
     13          6           0       -2.854556   -0.209942    0.292513
     14          1           0       -2.955605   -0.944125    1.103939
     15          6           0       -3.704276    1.013605    0.657670
     16          1           0       -3.628815    1.784845   -0.116659
     17          1           0       -4.760687    0.747599    0.758739
     18          1           0       -3.377294    1.458222    1.602180
     19          6           0        2.297425   -0.951608    1.441496
     20          1           0        2.551250   -2.002215    1.280286
     21          1           0        3.124450   -0.471209    1.968957
     22          1           0        1.407306   -0.902378    2.070167
     23          6           0       -3.358616   -0.863171   -1.001171
     24          1           0       -4.404598   -1.170985   -0.909502
     25          1           0       -3.290154   -0.160940   -1.839679
     26          1           0       -2.767087   -1.745711   -1.258795
     27          6           0        2.050175   -0.266945    0.096142
     28          8           0        1.709037    1.080436    0.507030
     29          8           0        1.432554    1.892650   -0.669455
     30          1           0        2.175320    2.509422   -0.628805
 ---------------------------------------------------------------------

 SCF Done:  E(UHF) =  -501.621469161     A.U. after   17 cycles
 E2 =    -0.2002423772D+01 EUMP2 =    -0.50362389293301D+03
 E2(CBS)=      -2.196628 CBS-Int=       0.065640 OIii=      17.369115

 The electronic state is 2-A.
 Alpha  occ. eigenvalues --  -20.61795 -20.61567 -11.29379 -11.21826 -11.21737
 Alpha  occ. eigenvalues --  -11.21701 -11.21673 -11.21670 -11.20325 -11.20115
 Alpha  occ. eigenvalues --  -11.20037  -1.46362  -1.22959  -1.09401  -1.06085
 Alpha  occ. eigenvalues --   -1.01127  -0.94401  -0.92244  -0.91918  -0.81761
 Alpha  occ. eigenvalues --   -0.76149  -0.75112  -0.70583  -0.66142  -0.64204
 Alpha  occ. eigenvalues --   -0.62434  -0.61224  -0.60062  -0.59036  -0.56612
 Alpha  occ. eigenvalues --   -0.55232  -0.54667  -0.53367  -0.53197  -0.52546
 Alpha  occ. eigenvalues --   -0.51865  -0.50361  -0.49600  -0.47797  -0.47191
 Alpha  occ. eigenvalues --   -0.45451  -0.45321  -0.44832  -0.43802  -0.31882
 Alpha virt. eigenvalues --    0.03904   0.04728   0.05053   0.05428   0.06392
 Alpha virt. eigenvalues --    0.06657   0.06728   0.07418   0.07897   0.08544
 Alpha virt. eigenvalues --    0.08781   0.09344   0.09822   0.10261   0.11447

  Beta  occ. eigenvalues --  -20.61780 -20.61594 -11.29101 -11.22106 -11.21704
  Beta  occ. eigenvalues --  -11.21673 -11.21582 -11.20650 -11.20124 -11.20028
  Beta  occ. eigenvalues --  -11.19347  -1.46359  -1.22863  -1.07996  -1.05724
  Beta  occ. eigenvalues --   -0.98760  -0.94358  -0.92152  -0.91873  -0.78864
  Beta  occ. eigenvalues --   -0.75931  -0.73586  -0.70210  -0.65656  -0.63891
  Beta  occ. eigenvalues --   -0.61626  -0.60882  -0.59522  -0.58007  -0.56345
  Beta  occ. eigenvalues --   -0.54970  -0.54585  -0.53279  -0.52778  -0.52465
  Beta  occ. eigenvalues --   -0.51615  -0.49837  -0.49123  -0.47514  -0.46331
  Beta  occ. eigenvalues --   -0.45077  -0.44892  -0.44604  -0.43092
  Beta virt. eigenvalues --    0.03916   0.04741   0.05055   0.05440   0.06402
  Beta virt. eigenvalues --    0.06665   0.06718   0.07421   0.07813   0.08546
  Beta virt. eigenvalues --    0.08794   0.09334   0.09824   0.10233   0.11413

 Mulliken atomic charges:
              1
     1  C   -0.228952
     2  H    0.091886
     3  H    0.066778
     4  H    0.092126
     5  C   -0.509775
     6  H    0.114369
     7  H    0.109866
     8  C    0.384461
     9  H    0.158229
    10  C   -0.838561
    11  H    0.074221
    12  H    0.085118
    13  C    0.826522
    14  H    0.017806
    15  C   -0.445104
    16  H    0.056441
    17  H    0.096480
    18  H    0.054992
    19  C   -0.573614
    20  H    0.064730
    21  H    0.094450
    22  H    0.099796
    23  C   -0.597282
    24  H    0.085521
    25  H    0.059623
    26  H    0.078473
    27  C    0.584050
    28  O   -0.112850
    29  O   -0.271079
    30  H    0.281278
 Sum of Mulliken atomic charges =   0.00000

 Dipole moment (field-independent basis, Debye):
    X=              1.8745    Y=             -0.5973    Z=             -0.2674  Tot=              1.9855
 Quadrupole moment (field-independent basis, Debye-Ang):
   XX=            -66.7503   YY=            -68.9771   ZZ=            -72.4666
   XY=              1.8160   XZ=             -2.0480   YZ=             -2.2757

 Normal termination of Gaussian 09 at Sun Feb  9 04:47:57 2014.
