 Gaussian 09, Revision C.01,

 --------------------------------------------------
 #p UB3LYP/6-311++G(d,p) guess=mix stable=(opt,xqc)
 --------------------------------------------------

 (Enter /usr/caen/gaussian-09revc/g09/l101.exe)
 --------------------------------------------
 C9H18OOH_2_26_f using cbs-qb3 to cal. energy
 --------------------------------------------
 Charge =  0 Multiplicity = 2

 SCF Done:  E(UB3LYP) =  -504.863265006     A.U. after   19 cycles
 Normal termination of Gaussian 09 at Sat Feb  8 15:03:19 2014.
 Gaussian 09:  EM64L-G09RevC.01 23-Sep-2011

 ------------------------------------------------
 #p cbs-qb3 opt=calcfc freq geom=check guess=read
 ------------------------------------------------

 ---------------------
 optimization and freq
 ---------------------
 Structure from the checkpoint file:  C9H18OOH_2_26_f.chk
 Charge =  0 Multiplicity = 2

 SCF Done:  E(UB3LYP) =  -504.854792187     A.U. after   10 cycles
 SCF Done:  E(UB3LYP) =  -504.854919561     A.U. after   12 cycles
 SCF Done:  E(UB3LYP) =  -504.854961196     A.U. after   13 cycles
 SCF Done:  E(UB3LYP) =  -504.854989441     A.U. after   12 cycles
 SCF Done:  E(UB3LYP) =  -504.854929852     A.U. after   13 cycles
 SCF Done:  E(UB3LYP) =  -504.854955534     A.U. after   12 cycles
 SCF Done:  E(UB3LYP) =  -504.854896091     A.U. after   13 cycles
 SCF Done:  E(UB3LYP) =  -504.855022340     A.U. after   12 cycles
 SCF Done:  E(UB3LYP) =  -504.853686172     A.U. after   15 cycles
 SCF Done:  E(UB3LYP) =  -504.854757093     A.U. after   12 cycles
 SCF Done:  E(UB3LYP) =  -504.855061437     A.U. after   12 cycles
 SCF Done:  E(UB3LYP) =  -504.855072037     A.U. after   11 cycles
 SCF Done:  E(UB3LYP) =  -504.855077329     A.U. after   10 cycles
 SCF Done:  E(UB3LYP) =  -504.855077676     A.U. after    8 cycles
 SCF Done:  E(UB3LYP) =  -504.855077689     A.U. after    7 cycles
 Optimization completed.
    -- Stationary point found.
 Normal termination of Gaussian 09 at Sat Feb  8 15:56:01 2014.

 ---------------------------------------------------------
 #P Geom=AllCheck Guess=TCheck SCRF=Check B3LYP/CBSB7 Freq
 ---------------------------------------------------------

 Structure from the checkpoint file:  C9H18OOH_2_26_f.chk
 ---------------------
 optimization and freq
 ---------------------
 Charge =  0 Multiplicity = 2

 SCF Done:  E(UB3LYP) =  -504.855077689     A.U. after    1 cycles

  Exact polarizability: 133.869   0.464 112.679  -2.794   1.945  98.073
 Approx polarizability: 154.298  -0.949 162.545  -1.235   4.171 147.008

                     1                      2                      3
                     A                      A                      A
 Frequencies --    22.4674                36.2613                65.2250
 Red. masses --     2.8898                 3.2310                 2.6120
 Frc consts  --     0.0009                 0.0025                 0.0065
 IR Inten    --     0.0111                 0.6033                 0.6437

                     4                      5                      6
                     A                      A                      A
 Frequencies --    83.9673                99.2465               111.2490
 Red. masses --     2.4377                 1.5219                 1.3663
 Frc consts  --     0.0101                 0.0088                 0.0100
 IR Inten    --     0.8370                 0.4198                 0.1676

                     7                      8                      9
                     A                      A                      A
 Frequencies --   119.1602               169.8881               190.0467
 Red. masses --     1.2280                 2.5209                 2.3326
 Frc consts  --     0.0103                 0.0429                 0.0496
 IR Inten    --     0.1162                 4.1863                 1.2593

                    10                     11                     12
                     A                      A                      A
 Frequencies --   196.5044               227.8382               250.8815
 Red. masses --     1.2673                 1.1606                 2.6102
 Frc consts  --     0.0288                 0.0355                 0.0968
 IR Inten    --     1.5604                54.1203                 2.4399

                    13                     14                     15
                     A                      A                      A
 Frequencies --   260.6214               271.9434               331.1209
 Red. masses --     1.6852                 1.6068                 2.8546
 Frc consts  --     0.0674                 0.0700                 0.1844
 IR Inten    --    46.1481                19.3580                 0.8412

                    16                     17                     18
                     A                      A                      A
 Frequencies --   345.4676               368.1858               388.6204
 Red. masses --     2.6955                 2.2407                 2.2882
 Frc consts  --     0.1895                 0.1790                 0.2036
 IR Inten    --     8.4174                 1.1690                 2.7404

                    19                     20                     21
                     A                      A                      A
 Frequencies --   391.5603               470.2267               525.6603
 Red. masses --     2.5480                 2.7599                 3.3384
 Frc consts  --     0.2302                 0.3595                 0.5435
 IR Inten    --     0.2388                 2.7105                 3.7189

                    22                     23                     24
                     A                      A                      A
 Frequencies --   542.3990               740.6724               750.6176
 Red. masses --     3.2527                 1.2280                 3.2829
 Frc consts  --     0.5638                 0.3969                 1.0898
 IR Inten    --     2.6753                 4.1978                 0.4493

                    25                     26                     27
                     A                      A                      A
 Frequencies --   799.3130               830.0473               871.5909
 Red. masses --     3.4690                 1.7150                 2.1912
 Frc consts  --     1.3058                 0.6962                 0.9807
 IR Inten    --     3.6150                 3.6971                 9.3341

                    28                     29                     30
                     A                      A                      A
 Frequencies --   919.9606               928.6110               941.3003
 Red. masses --     3.6424                 2.2784                 1.6300
 Frc consts  --     1.8163                 1.1576                 0.8509
 IR Inten    --     3.9749                 0.8420                 0.7682

                    31                     32                     33
                     A                      A                      A
 Frequencies --   942.7418               976.0752               982.8210
 Red. masses --     1.2495                 1.9900                 1.3845
 Frc consts  --     0.6543                 1.1170                 0.7880
 IR Inten    --     0.4908                 1.3269                 0.9249

                    34                     35                     36
                     A                      A                      A
 Frequencies --  1005.9987              1020.5662              1032.6244
 Red. masses --     1.5998                 2.2059                 1.5066
 Frc consts  --     0.9539                 1.3537                 0.9465
 IR Inten    --     2.1454                 0.1728                 0.9240

                    37                     38                     39
                     A                      A                      A
 Frequencies --  1052.8241              1061.4989              1116.4047
 Red. masses --     1.6633                 2.4754                 1.3434
 Frc consts  --     1.0862                 1.6434                 0.9865
 IR Inten    --     0.6848                 1.7158                 4.3005

                    40                     41                     42
                     A                      A                      A
 Frequencies --  1192.0795              1222.7568              1256.8587
 Red. masses --     2.1060                 2.0975                 2.1155
 Frc consts  --     1.7633                 1.8477                 1.9690
 IR Inten    --    15.0816                18.5903                16.4224

                    43                     44                     45
                     A                      A                      A
 Frequencies --  1269.4250              1287.1140              1297.9878
 Red. masses --     1.6543                 1.9090                 2.4530
 Frc consts  --     1.5706                 1.8633                 2.4350
 IR Inten    --     3.2844                15.7185                 9.2899

                    46                     47                     48
                     A                      A                      A
 Frequencies --  1339.9055              1341.1767              1356.4877
 Red. masses --     1.2500                 1.2782                 1.1839
 Frc consts  --     1.3222                 1.3546                 1.2835
 IR Inten    --     0.6957                22.2949                39.0119

                    49                     50                     51
                     A                      A                      A
 Frequencies --  1363.4765              1392.3432              1394.8696
 Red. masses --     1.4405                 1.4512                 1.3173
 Frc consts  --     1.5778                 1.6575                 1.5101
 IR Inten    --     2.7367                 2.5036                18.1358

                    52                     53                     54
                     A                      A                      A
 Frequencies --  1398.5539              1414.6964              1416.3593
 Red. masses --     1.3008                 1.2481                 1.2245
 Frc consts  --     1.4991                 1.4717                 1.4473
 IR Inten    --     5.9975                 9.2117                 0.7407

                    55                     56                     57
                     A                      A                      A
 Frequencies --  1471.9533              1472.6043              1475.4080
 Red. masses --     1.0676                 1.0675                 1.0586
 Frc consts  --     1.3628                 1.3640                 1.3577
 IR Inten    --     2.9041                 1.4198                 3.7856

                    58                     59                     60
                     A                      A                      A
 Frequencies --  1479.8590              1485.7230              1489.5399
 Red. masses --     1.0606                 1.0699                 1.0754
 Frc consts  --     1.3685                 1.3915                 1.4057
 IR Inten    --     6.5558                 4.7357                 0.8854

                    61                     62                     63
                     A                      A                      A
 Frequencies --  1493.8103              1495.5889              1497.1943
 Red. masses --     1.0515                 1.0722                 1.0550
 Frc consts  --     1.3825                 1.4130                 1.3933
 IR Inten    --     4.0964                 1.3456                 0.4764

                    64                     65                     66
                     A                      A                      A
 Frequencies --  1507.1717              1517.5846              2916.0323
 Red. masses --     1.0977                 1.0543                 1.0627
 Frc consts  --     1.4691                 1.4306                 5.3243
 IR Inten    --     4.6008                 9.2297                48.1333

                    67                     68                     69
                     A                      A                      A
 Frequencies --  2924.1817              2957.9970              3016.4034
 Red. masses --     1.0635                 1.0672                 1.0636
 Frc consts  --     5.3579                 5.5015                 5.7015
 IR Inten    --    76.5601                43.0964                12.6399

                    70                     71                     72
                     A                      A                      A
 Frequencies --  3021.6357              3024.0595              3027.0006
 Red. masses --     1.0816                 1.0751                 1.0685
 Frc consts  --     5.8182                 5.7928                 5.7683
 IR Inten    --    26.4477                33.7952                21.3867

                    73                     74                     75
                     A                      A                      A
 Frequencies --  3031.6328              3032.7329              3042.9692
 Red. masses --     1.0587                 1.0425                 1.0363
 Frc consts  --     5.7328                 5.6496                 5.6539
 IR Inten    --    14.8870                35.1119                19.9775

                    76                     77                     78
                     A                      A                      A
 Frequencies --  3060.6454              3070.0119              3077.5617
 Red. masses --     1.0921                 1.1010                 1.0995
 Frc consts  --     6.0273                 6.1137                 6.1358
 IR Inten    --    11.0466                28.8678                34.3282

                    79                     80                     81
                     A                      A                      A
 Frequencies --  3084.8309              3096.3862              3108.2045
 Red. masses --     1.1024                 1.1020                 1.1020
 Frc consts  --     6.1808                 6.2253                 6.2724
 IR Inten    --    44.4254                14.3952                40.6368

                    82                     83                     84
                     A                      A                      A
 Frequencies --  3113.2996              3123.0322              3780.8931
 Red. masses --     1.1011                 1.1010                 1.0688
 Frc consts  --     6.2878                 6.3268                 9.0021
 IR Inten    --    23.0817                20.7954                40.5348

 - Thermochemistry -
 -------------------
 Temperature   298.150 Kelvin.  Pressure   1.00000 Atm.
 Atom     1 has atomic number  6 and mass  12.00000

 Molecular mass:   159.13850 amu.
 Principal axes and moments of inertia in atomic units:
                           1         2         3
     Eigenvalues --   931.332004030.292834408.88285
           X            0.99991   0.01242  -0.00570
           Y           -0.01235   0.99985   0.01251
           Z            0.00586  -0.01244   0.99991
 This molecule is an asymmetric top.
 Rotational symmetry number  1.
 Warning -- assumption of classical behavior for rotation
           may cause significant error
 Rotational temperatures (Kelvin)      0.09300     0.02149     0.01965
 Rotational constants (GHZ):           1.93781     0.44779     0.40934
 Zero-point vibrational energy     695522.3 (Joules/Mol)
                                  166.23382 (Kcal/Mol)
 Warning -- explicit consideration of  22 degrees of freedom as
           vibrations may cause significant error
 Vibrational temperatures:     32.33    52.17    93.84   120.81   142.79
          (Kelvin)            160.06   171.44   244.43   273.43   282.73
                              327.81   360.96   374.98   391.27   476.41
                              497.05   529.74   559.14   563.37   676.55
                              756.31   780.39  1065.66  1079.97  1150.03
                             1194.25  1254.02  1323.62  1336.06  1354.32
                             1356.39  1404.35  1414.06  1447.41  1468.37
                             1485.71  1514.78  1527.26  1606.26  1715.13
                             1759.27  1808.34  1826.42  1851.87  1867.51
                             1927.82  1929.65  1951.68  1961.74  2003.27
                             2006.90  2012.20  2035.43  2037.82  2117.81
                             2118.75  2122.78  2129.18  2137.62  2143.11
                             2149.26  2151.82  2154.13  2168.48  2183.46
                             4195.51  4207.24  4255.89  4339.93  4347.45
                             4350.94  4355.17  4361.84  4363.42  4378.15
                             4403.58  4417.06  4427.92  4438.38  4455.00
                             4472.01  4479.34  4493.34  5439.86

 Zero-point correction=                           0.264910 (Hartree/Particle)
 Thermal correction to Energy=                    0.280345
 Thermal correction to Enthalpy=                  0.281289
 Thermal correction to Gibbs Free Energy=         0.220812
 Sum of electronic and zero-point Energies=           -504.590167
 Sum of electronic and thermal Energies=              -504.574733
 Sum of electronic and thermal Enthalpies=            -504.573788
 Sum of electronic and thermal Free Energies=         -504.634266

                     E (Thermal)             CV                S
                      KCal/Mol        Cal/Mol-Kelvin    Cal/Mol-Kelvin
 Total                  175.919             54.478            127.285
 Electronic               0.000              0.000              1.377
 Translational            0.889              2.981             41.103
 Rotational               0.889              2.981             31.182
 Vibrational            174.142             48.516             53.623
 Vibration     1          0.593              1.985              6.403
 Vibration     2          0.594              1.982              5.454
 Vibration     3          0.597              1.971              4.293
 Vibration     4          0.601              1.960              3.796
 Vibration     5          0.604              1.950              3.469
 Vibration     6          0.607              1.940              3.247
 Vibration     7          0.609              1.933              3.114
 Vibration     8          0.625              1.880              2.437
 Vibration     9          0.633              1.854              2.227
 Vibration    10          0.636              1.845              2.166
 Vibration    11          0.651              1.799              1.896
 Vibration    12          0.663              1.761              1.724
 Vibration    13          0.669              1.745              1.658
 Vibration    14          0.675              1.725              1.584
 Vibration    15          0.713              1.613              1.255
 Vibration    16          0.724              1.584              1.187
 Vibration    17          0.741              1.538              1.087
 Vibration    18          0.757              1.494              1.005
 Vibration    19          0.759              1.488              0.994
 Vibration    20          0.827              1.316              0.737
 Vibration    21          0.881              1.193              0.597
 Vibration    22          0.898              1.156              0.560

 Optimization completed.
    -- Stationary point found.
 Normal termination of Gaussian 09 at Sat Feb  8 16:09:07 2014.

 -----------------------------------------------------------
 #P Geom=AllCheck Guess=TCheck SCRF=Check CCSD(T)/6-31+G(d')
 -----------------------------------------------------------

 Structure from the checkpoint file:  C9H18OOH_2_26_f.chk
 ---------------------
 optimization and freq
 ---------------------
 Charge =  0 Multiplicity = 2

 SCF Done:  E(UHF) =  -501.455004659     A.U. after   16 cycles
 E2 =    -0.1572527112D+01 EUMP2 =    -0.50302753177147D+03
 CCSD(T)
 CCSD(T)= -0.50319922126D+03
 503.1430665\CCSD=-503.1453854\CCSD(T)=-503.1992213\S2=0.76527\S2-1=0.7
 Normal termination of Gaussian 09 at Sun Feb  9 06:10:43 2014.

 -----------------------------------------------------
 #P Geom=AllCheck Guess=TCheck SCRF=Check MP4SDQ/CBSB4
 -----------------------------------------------------

 Structure from the checkpoint file:  C9H18OOH_2_26_f.chk
 ---------------------
 optimization and freq
 ---------------------
 Charge =  0 Multiplicity = 2

 SCF Done:  E(UHF) =  -501.486862633     A.U. after   13 cycles
 E2 =    -0.1697516891D+01 EUMP2 =    -0.50318437952435D+03
 Normal termination of Gaussian 09 at Sun Feb  9 06:51:13 2014.

 ----------------------------------------------------------------------
 #P Geom=AllCheck Guess=TCheck SCRF=Check MP2/CBSB3 CBSExtrap=(NMin=10,
 MinPop)
 ----------------------------------------------------------------------

 Structure from the checkpoint file:  C9H18OOH_2_26_f.chk
 ---------------------
 optimization and freq
 ---------------------
 Charge =  0 Multiplicity = 2

                         Standard orientation:
 ---------------------------------------------------------------------
 Center     Atomic      Atomic             Coordinates (Angstroms)
 Number     Number       Type             X           Y           Z
 ---------------------------------------------------------------------
      1          6           0       -3.281376   -0.520798    0.887777
      2          1           0       -3.247738    0.254559    1.654955
      3          1           0       -3.277538   -1.492878    1.387485
      4          1           0       -4.217359   -0.425911    0.330459
      5          6           0       -0.758365   -0.480043    0.726394
      6          1           0       -0.797196    0.272123    1.519986
      7          1           0       -0.724030   -1.457009    1.224020
      8          6           0        0.516140   -0.266400   -0.097023
      9          1           0        0.430208    0.673659   -0.648419
     10          1           0        0.631754   -1.058747   -0.843507
     11          6           0        1.786182   -0.236006    0.785673
     12          1           0        1.862619   -1.187371    1.326018
     13          1           0        1.646780    0.542301    1.552393
     14          6           0        3.051463    0.019651    0.019015
     15          6           0        3.394493    1.421186   -0.374647
     16          1           0        4.007539    1.923365    0.394828
     17          1           0        3.976905    1.455105   -1.302183
     18          1           0        2.501644    2.037363   -0.514516
     19          6           0       -2.173122   -1.420761   -1.191624
     20          1           0       -2.075894   -2.430809   -0.786117
     21          1           0       -3.136860   -1.342297   -1.699411
     22          1           0       -1.385383   -1.263972   -1.929207
     23          6           0        4.104957   -1.036856   -0.074504
     24          1           0        4.719815   -0.920062   -0.973729
     25          1           0        4.802054   -1.005112    0.782352
     26          1           0        3.673384   -2.042700   -0.087020
     27          6           0       -2.082635   -0.395108   -0.057525
     28          8           0       -2.159115    0.856766   -0.790634
     29          8           0       -2.063581    1.971296    0.141330
     30          1           0       -2.955553    2.334703    0.064834
 ---------------------------------------------------------------------

 SCF Done:  E(UHF) =  -501.623847178     A.U. after   14 cycles
 E2 =    -0.2000549045D+01 EUMP2 =    -0.50362439622312D+03
 E2(CBS)=      -2.195187 CBS-Int=       0.065724 OIii=      17.376948

 The electronic state is 2-A.
 Alpha  occ. eigenvalues --  -20.61659 -20.61424 -11.29075 -11.21766 -11.21633
 Alpha  occ. eigenvalues --  -11.21618 -11.21445 -11.21143 -11.21040 -11.20837
 Alpha  occ. eigenvalues --  -11.20569  -1.46186  -1.22730  -1.09744  -1.06198
 Alpha  occ. eigenvalues --   -1.01026  -0.94298  -0.93048  -0.92251  -0.82661
 Alpha  occ. eigenvalues --   -0.75760  -0.73477  -0.70766  -0.65812  -0.63733
 Alpha  occ. eigenvalues --   -0.62683  -0.61706  -0.60331  -0.59178  -0.57227
 Alpha  occ. eigenvalues --   -0.56047  -0.54770  -0.53317  -0.53205  -0.52191
 Alpha  occ. eigenvalues --   -0.51555  -0.50481  -0.49930  -0.49170  -0.48161
 Alpha  occ. eigenvalues --   -0.46455  -0.45632  -0.45048  -0.42848  -0.30081
 Alpha virt. eigenvalues --    0.03888   0.04621   0.05131   0.05549   0.06293
 Alpha virt. eigenvalues --    0.06670   0.06738   0.07473   0.08085   0.08652
 Alpha virt. eigenvalues --    0.08813   0.09476   0.09704   0.10015   0.11561

  Beta  occ. eigenvalues --  -20.61659 -20.61425 -11.29075 -11.21632 -11.21617
  Beta  occ. eigenvalues --  -11.21465 -11.21434 -11.21174 -11.20897 -11.20843
  Beta  occ. eigenvalues --  -11.19228  -1.46186  -1.22727  -1.07819  -1.04760
  Beta  occ. eigenvalues --   -1.00200  -0.94294  -0.93044  -0.92227  -0.82023
  Beta  occ. eigenvalues --   -0.75702  -0.71052  -0.69163  -0.65685  -0.63535
  Beta  occ. eigenvalues --   -0.62437  -0.61532  -0.58903  -0.56932  -0.56506
  Beta  occ. eigenvalues --   -0.55224  -0.54736  -0.53300  -0.52145  -0.52094
  Beta  occ. eigenvalues --   -0.51298  -0.50345  -0.49424  -0.48785  -0.47892
  Beta  occ. eigenvalues --   -0.46053  -0.45372  -0.44913  -0.42504
  Beta virt. eigenvalues --    0.03883   0.04622   0.05131   0.05554   0.06300
  Beta virt. eigenvalues --    0.06672   0.06699   0.07465   0.08089   0.08655
  Beta virt. eigenvalues --    0.08773   0.09475   0.09662   0.10029   0.11505

 Mulliken atomic charges:
              1
     1  C   -0.113044
     2  H    0.087342
     3  H    0.067469
     4  H    0.105981
     5  C   -0.068756
     6  H    0.084758
     7  H    0.083757
     8  C   -0.385510
     9  H    0.065361
    10  H    0.054569
    11  C   -0.662458
    12  H    0.074872
    13  H    0.070228
    14  C    0.965562
    15  C   -0.481532
    16  H    0.057250
    17  H    0.059933
    18  H    0.094558
    19  C   -0.643018
    20  H    0.058467
    21  H    0.110875
    22  H    0.110142
    23  C   -0.412104
    24  H    0.074069
    25  H    0.048221
    26  H    0.071863
    27  C    0.520222
    28  O   -0.128732
    29  O   -0.242932
    30  H    0.272589
 Sum of Mulliken atomic charges =   0.00000

 Dipole moment (field-independent basis, Debye):
    X=             -1.3403    Y=             -0.9918    Z=              0.8207  Tot=              1.8583
 Quadrupole moment (field-independent basis, Debye-Ang):
   XX=            -65.0808   YY=            -69.9951   ZZ=            -73.1650
   XY=             -1.3779   XZ=             -1.7908   YZ=              1.0432

 Normal termination of Gaussian 09 at Sun Feb  9 08:10:32 2014.
