 Gaussian 09, Revision C.01,
 Gaussian 09:  EM64L-G09RevC.01 23-Sep-2011

 ----------------------------------------
 # cbs-qb3 opt=(calcfc,modredundant) freq
 ----------------------------------------

 99/9=1/99;
 -----------------------------------------
 C9H19O2_3_26 using CBS-QB3 to cal. energy
 -----------------------------------------
 Charge =  0 Multiplicity = 2

 SCF Done:  E(UB3LYP) =  -504.875047318     A.U. after   19 cycles
 SCF Done:  E(UB3LYP) =  -504.875076713     A.U. after   15 cycles
 SCF Done:  E(UB3LYP) =  -504.875076754     A.U. after   13 cycles
 SCF Done:  E(UB3LYP) =  -504.875077762     A.U. after   12 cycles
 SCF Done:  E(UB3LYP) =  -504.875077851     A.U. after   11 cycles
 Optimization completed on the basis of negligible forces.
    -- Stationary point found.
 Normal termination of Gaussian 09 at Tue Feb  4 18:18:44 2014.

 ---------------------------------------------------------
 #N Geom=AllCheck Guess=TCheck SCRF=Check B3LYP/CBSB7 Freq
 ---------------------------------------------------------

 Structure from the checkpoint file:  C9H19O2_3_26.chk
 -----------------------------------------
 C9H19O2_3_26 using CBS-QB3 to cal. energy
 -----------------------------------------
 Charge =  0 Multiplicity = 2

 SCF Done:  E(UB3LYP) =  -504.875077851     A.U. after    1 cycles

  Exact polarizability: 128.715   0.063 115.991  -0.932   3.556  94.347
 Approx polarizability: 147.427  -3.076 163.063  -2.290   8.169 151.940

                     1                      2                      3
                     A                      A                      A
 Frequencies --    24.9225                38.5315                51.7281
 Red. masses --     3.2866                 5.2081                 2.9781
 Frc consts  --     0.0012                 0.0046                 0.0047
 IR Inten    --     0.6704                 1.2137                 0.4383

                     4                      5                      6
                     A                      A                      A
 Frequencies --    70.3862                96.0598               126.2966
 Red. masses --     3.2298                 2.9266                 2.0951
 Frc consts  --     0.0094                 0.0159                 0.0197
 IR Inten    --     0.5375                 0.2164                 0.0659

                     7                      8                      9
                     A                      A                      A
 Frequencies --   199.7454               216.9138               229.0629
 Red. masses --     1.5316                 1.5392                 1.0785
 Frc consts  --     0.0360                 0.0427                 0.0333
 IR Inten    --     0.2859                 0.1218                 0.0193

                    10                     11                     12
                     A                      A                      A
 Frequencies --   235.1938               241.0297               257.6244
 Red. masses --     1.7067                 1.6158                 1.2133
 Frc consts  --     0.0556                 0.0553                 0.0474
 IR Inten    --     0.2601                 0.1885                 0.2069

                    13                     14                     15
                     A                      A                      A
 Frequencies --   306.7956               317.3334               377.5157
 Red. masses --     2.6812                 2.7956                 2.4070
 Frc consts  --     0.1487                 0.1659                 0.2021
 IR Inten    --     0.8940                 2.0939                 0.4625

                    16                     17                     18
                     A                      A                      A
 Frequencies --   400.0836               414.2709               446.1201
 Red. masses --     2.5519                 2.3328                 2.7576
 Frc consts  --     0.2407                 0.2359                 0.3234
 IR Inten    --     1.3267                 0.4016                 1.8717

                    19                     20                     21
                     A                      A                      A
 Frequencies --   476.3178               480.8524               568.6452
 Red. masses --     2.6881                 2.7327                 3.5187
 Frc consts  --     0.3593                 0.3723                 0.6704
 IR Inten    --     0.5867                 0.8347                 6.4009

                    22                     23                     24
                     A                      A                      A
 Frequencies --   742.3888               815.4759               850.2279
 Red. masses --     1.4173                 2.8622                 2.1091
 Frc consts  --     0.4602                 1.1214                 0.8983
 IR Inten    --     0.4196                 1.8954                 6.2158

                    25                     26                     27
                     A                      A                      A
 Frequencies --   860.8275               929.5986               934.7844
 Red. masses --     2.4796                 1.3503                 1.3618
 Frc consts  --     1.0826                 0.6875                 0.7011
 IR Inten    --     5.0165                 4.2197                 1.4658

                    28                     29                     30
                     A                      A                      A
 Frequencies --   937.5488               946.5145               963.6312
 Red. masses --     1.5171                 1.6024                 1.4388
 Frc consts  --     0.7857                 0.8458                 0.7872
 IR Inten    --     5.2659                 1.1378                 0.5129

                    31                     32                     33
                     A                      A                      A
 Frequencies --   967.8532               994.5460              1032.6170
 Red. masses --     1.4901                 2.0792                 3.1386
 Frc consts  --     0.8224                 1.2117                 1.9718
 IR Inten    --     0.6085                 7.2638                 1.0855

                    34                     35                     36
                     A                      A                      A
 Frequencies --  1055.7265              1108.0885              1136.4424
 Red. masses --     1.8720                 1.7204                 2.1056
 Frc consts  --     1.2293                 1.2446                 1.6022
 IR Inten    --     3.9753                 0.1927                 1.6923

                    37                     38                     39
                     A                      A                      A
 Frequencies --  1144.1698              1183.3421              1190.9075
 Red. masses --     2.3408                 2.6489                 1.9244
 Frc consts  --     1.8055                 2.1854                 1.6080
 IR Inten    --     0.6637                 2.3705                 8.3113

                    40                     41                     42
                     A                      A                      A
 Frequencies --  1194.1312              1203.8287              1241.1684
 Red. masses --     1.9155                 4.0427                 1.5777
 Frc consts  --     1.6093                 3.4519                 1.4320
 IR Inten    --     4.4121                 2.8152                10.9361

                    43                     44                     45
                     A                      A                      A
 Frequencies --  1278.2416              1313.7441              1324.0671
 Red. masses --     1.2472                 1.3203                 1.2177
 Frc consts  --     1.2006                 1.3426                 1.2578
 IR Inten    --     1.9209                 2.6684                 2.6474

                    46                     47                     48
                     A                      A                      A
 Frequencies --  1338.1081              1347.8334              1368.6519
 Red. masses --     1.2129                 1.3520                 1.3047
 Frc consts  --     1.2796                 1.4471                 1.4399
 IR Inten    --     4.2221                 2.9464                 4.9799

                    49                     50                     51
                     A                      A                      A
 Frequencies --  1372.8547              1387.6548              1399.8014
 Red. masses --     1.3337                 1.4071                 1.4558
 Frc consts  --     1.4811                 1.5964                 1.6807
 IR Inten    --     2.9389                 1.7621                 1.2156

                    52                     53                     54
                     A                      A                      A
 Frequencies --  1402.8651              1408.1831              1423.0602
 Red. masses --     1.2674                 1.2712                 1.2513
 Frc consts  --     1.4696                 1.4851                 1.4929
 IR Inten    --     9.3586                 3.2390                 6.7556

                    55                     56                     57
                     A                      A                      A
 Frequencies --  1426.4419              1475.7431              1488.6847
 Red. masses --     1.2172                 1.0773                 1.0563
 Frc consts  --     1.4592                 1.3823                 1.3793
 IR Inten    --     7.2630                 1.3407                 1.1682

                    58                     59                     60
                     A                      A                      A
 Frequencies --  1491.1623              1494.1485              1498.0619
 Red. masses --     1.0518                 1.0514                 1.0421
 Frc consts  --     1.3779                 1.3829                 1.3780
 IR Inten    --     0.3471                 2.4202                 2.8017

                    61                     62                     63
                     A                      A                      A
 Frequencies --  1501.2461              1507.2343              1508.2783
 Red. masses --     1.0765                 1.0569                 1.0560
 Frc consts  --     1.4294                 1.4146                 1.4154
 IR Inten    --     2.9047                 3.9510                 5.4174

                    64                     65                     66
                     A                      A                      A
 Frequencies --  1513.5613              1516.8613              2987.2375
 Red. masses --     1.0475                 1.0472                 1.0802
 Frc consts  --     1.4138                 1.4196                 5.6791
 IR Inten    --    13.4934                18.5510                 5.0835

                    67                     68                     69
                     A                      A                      A
 Frequencies --  3002.7154              3010.1211              3014.3171
 Red. masses --     1.0687                 1.0816                 1.0365
 Frc consts  --     5.6769                 5.7741                 5.5489
 IR Inten    --    17.0398                 2.5967                27.9959

                    70                     71                     72
                     A                      A                      A
 Frequencies --  3019.5079              3022.2088              3024.0539
 Red. masses --     1.0415                 1.0643                 1.0390
 Frc consts  --     5.5950                 5.7274                 5.5980
 IR Inten    --    21.0312                43.2883                17.1841

                    73                     74                     75
                     A                      A                      A
 Frequencies --  3029.5843              3058.1472              3065.4743
 Red. masses --     1.0397                 1.0919                 1.0859
 Frc consts  --     5.6222                 6.0165                 6.0123
 IR Inten    --    29.0270                 4.9256                 6.1941

                    76                     77                     78
                     A                      A                      A
 Frequencies --  3073.7662              3080.6329              3083.2987
 Red. masses --     1.1000                 1.0992                 1.1004
 Frc consts  --     6.1234                 6.1463                 6.1633
 IR Inten    --     4.4762                63.1833                 3.4896

                    79                     80                     81
                     A                      A                      A
 Frequencies --  3084.6220              3088.2423              3090.4783
 Red. masses --     1.1002                 1.1008                 1.0991
 Frc consts  --     6.1675                 6.1857                 6.1851
 IR Inten    --    24.8377                55.5407                60.6541

                    82                     83                     84
                     A                      A                      A
 Frequencies --  3091.6600              3105.9149              3119.6852
 Red. masses --     1.0984                 1.0986                 1.0990
 Frc consts  --     6.1859                 6.2439                 6.3019
 IR Inten    --    66.5923                31.6808                17.2884

 - Thermochemistry -
 -------------------
 Temperature   298.150 Kelvin.  Pressure   1.00000 Atm.
 Atom     1 has atomic number  6 and mass  12.00000

 Molecular mass:   159.13850 amu.
 Principal axes and moments of inertia in atomic units:
                           1         2         3
     Eigenvalues --  1055.813943519.948974377.27502
           X            0.99984   0.01804  -0.00019
           Y           -0.01804   0.99983  -0.00225
           Z            0.00015   0.00225   1.00000
 This molecule is an asymmetric top.
 Rotational symmetry number  1.
 Warning -- assumption of classical behavior for rotation
           may cause significant error
 Rotational temperatures (Kelvin)      0.08204     0.02461     0.01979
 Rotational constants (GHZ):           1.70934     0.51272     0.41230
 Zero-point vibrational energy     704884.0 (Joules/Mol)
                                  168.47132 (Kcal/Mol)
 Warning -- explicit consideration of  21 degrees of freedom as
           vibrations may cause significant error
 Vibrational temperatures:     35.86    55.44    74.43   101.27   138.21
          (Kelvin)            181.71   287.39   312.09   329.57   338.39
                              346.79   370.66   441.41   456.57   543.16
                              575.63   596.04   641.87   685.31   691.84
                              818.15  1068.13  1173.29  1223.29  1238.54
                             1337.48  1344.94  1348.92  1361.82  1386.45
                             1392.52  1430.93  1485.70  1518.95  1594.29
                             1635.09  1646.20  1702.56  1713.45  1718.09
                             1732.04  1785.76  1839.10  1890.18  1905.03
                             1925.24  1939.23  1969.18  1975.23  1996.52
                             2014.00  2018.41  2026.06  2047.46  2052.33
                             2123.26  2141.88  2145.45  2149.74  2155.37
                             2159.96  2168.57  2170.07  2177.67  2182.42
                             4297.96  4320.23  4330.89  4336.92  4344.39
                             4348.28  4350.93  4358.89  4399.99  4410.53
                             4422.46  4432.34  4436.17  4438.08  4443.29
                             4446.50  4448.20  4468.71  4488.53

 Zero-point correction=                           0.268476 (Hartree/Particle)
 Thermal correction to Energy=                    0.282858
 Thermal correction to Enthalpy=                  0.283802
 Thermal correction to Gibbs Free Energy=         0.225462
 Sum of electronic and zero-point Energies=           -504.606602
 Sum of electronic and thermal Energies=              -504.592220
 Sum of electronic and thermal Enthalpies=            -504.591276
 Sum of electronic and thermal Free Energies=         -504.649616

                     E (Thermal)             CV                S
                      KCal/Mol        Cal/Mol-Kelvin    Cal/Mol-Kelvin
 Total                  177.496             51.583            122.788
 Electronic               0.000              0.000              1.377
 Translational            0.889              2.981             41.103
 Rotational               0.889              2.981             31.165
 Vibrational            175.719             45.622             49.142
 Vibration     1          0.593              1.985              6.197
 Vibration     2          0.594              1.981              5.333
 Vibration     3          0.596              1.977              4.750
 Vibration     4          0.598              1.968              4.143
 Vibration     5          0.603              1.952              3.533
 Vibration     6          0.611              1.927              3.002
 Vibration     7          0.638              1.840              2.135
 Vibration     8          0.646              1.815              1.985
 Vibration     9          0.652              1.797              1.886
 Vibration    10          0.655              1.787              1.839
 Vibration    11          0.658              1.778              1.795
 Vibration    12          0.667              1.750              1.678
 Vibration    13          0.697              1.661              1.380
 Vibration    14          0.704              1.640              1.324
 Vibration    15          0.748              1.518              1.049
 Vibration    16          0.766              1.470              0.962
 Vibration    17          0.778              1.439              0.912
 Vibration    18          0.805              1.369              0.808
 Vibration    19          0.833              1.303              0.720
 Vibration    20          0.837              1.293              0.708
 Vibration    21          0.925              1.099              0.507

 Optimization completed on the basis of negligible forces.
    -- Stationary point found.
 Normal termination of Gaussian 09 at Tue Feb  4 18:27:28 2014.

 -----------------------------------------------------------
 #N Geom=AllCheck Guess=TCheck SCRF=Check CCSD(T)/6-31+G(d')
 -----------------------------------------------------------

 Structure from the checkpoint file:  C9H19O2_3_26.chk
 -----------------------------------------
 C9H19O2_3_26 using CBS-QB3 to cal. energy
 -----------------------------------------
 Charge =  0 Multiplicity = 2

 SCF Done:  E(UHF) =  -501.485592585     A.U. after   25 cycles
 E2 =    -0.1561177221D+01 EUMP2 =    -0.50304676980643D+03
 CCSD(T)= -0.50322547501D+03
 1389847\MP4SDQ=-503.1658639\CCSD=-503.1711024\CCSD(T)=-503.225475\S2=0
 Normal termination of Gaussian 09 at Wed Feb  5 06:00:44 2014.

 -----------------------------------------------------
 #N Geom=AllCheck Guess=TCheck SCRF=Check MP4SDQ/CBSB4
 -----------------------------------------------------

 Structure from the checkpoint file:  C9H19O2_3_26.chk
 -----------------------------------------
 C9H19O2_3_26 using CBS-QB3 to cal. energy
 -----------------------------------------
 Charge =  0 Multiplicity = 2

 SCF Done:  E(UHF) =  -501.509789233     A.U. after   18 cycles
 E2 =    -0.1686130055D+01 EUMP2 =    -0.50319591928783D+03
 Normal termination of Gaussian 09 at Wed Feb  5 06:25:30 2014.

 ----------------------------------------------------------------------
 #N Geom=AllCheck Guess=TCheck SCRF=Check MP2/CBSB3 CBSExtrap=(NMin=10,
 MinPop)
 ----------------------------------------------------------------------

 Structure from the checkpoint file:  C9H19O2_3_26.chk
 -----------------------------------------
 C9H19O2_3_26 using CBS-QB3 to cal. energy
 -----------------------------------------
 Charge =  0 Multiplicity = 2

                         Standard orientation:
 ---------------------------------------------------------------------
 Center     Atomic      Atomic             Coordinates (Angstroms)
 Number     Number       Type             X           Y           Z
 ---------------------------------------------------------------------
      1          6           0       -3.617513    0.035762    0.046878
      2          1           0       -3.667694    1.032301   -0.392692
      3          1           0       -3.713125    0.142508    1.132302
      4          1           0       -4.478772   -0.535357   -0.309639
      5          6           0       -2.313762   -0.687675   -0.321457
      6          1           0       -2.266567   -0.778978   -1.413964
      7          6           0        0.271941   -0.444810   -0.319319
      8          1           0        0.296727   -0.465340   -1.415827
      9          1           0        0.333369   -1.482601    0.015388
     10          6           0        1.468310    0.352401    0.216988
     11          1           0        1.477212    0.298765    1.314035
     12          1           0        1.331048    1.407717   -0.036956
     13          6           0        2.838903   -0.104739   -0.317371
     14          1           0        2.793752   -0.070026   -1.414625
     15          6           0        3.937339    0.867105    0.135574
     16          1           0        4.029606    0.870470    1.227184
     17          1           0        4.910111    0.586344   -0.278186
     18          1           0        3.719283    1.890395   -0.182951
     19          6           0       -2.299434   -2.100690    0.285070
     20          1           0       -2.261940   -2.056380    1.378721
     21          1           0       -3.212316   -2.634699    0.009694
     22          1           0       -1.454061   -2.699242   -0.059229
     23          6           0        3.186842   -1.542070    0.096097
     24          1           0        4.173296   -1.827910   -0.279941
     25          1           0        3.208387   -1.637243    1.187601
     26          1           0        2.468443   -2.270176   -0.289166
     27          6           0       -1.078495    0.118290    0.119474
     28          1           0       -1.104693    0.301625    1.197223
     29          8           0       -1.176615    1.457171   -0.498527
     30          8           0       -1.441742    2.413628    0.368456
 ---------------------------------------------------------------------

 SCF Done:  E(UHF) =  -501.647261229     A.U. after   19 cycles
 E2 =    -0.1986758876D+01 EUMP2 =    -0.50363402010538D+03
 E2(CBS)=      -2.180135 CBS-Int=       0.065325 OIii=      17.366467

 The electronic state is 2-A.
 Alpha  occ. eigenvalues --  -20.66514 -20.64660 -11.29173 -11.23840 -11.22784
 Alpha  occ. eigenvalues --  -11.22721 -11.22240 -11.21821 -11.21354 -11.21220
 Alpha  occ. eigenvalues --  -11.20975  -1.55741  -1.21004  -1.09654  -1.08021
 Alpha  occ. eigenvalues --   -1.01646  -0.93605  -0.92968  -0.91675  -0.83787
 Alpha  occ. eigenvalues --   -0.79287  -0.76561  -0.74526  -0.70135  -0.66770
 Alpha  occ. eigenvalues --   -0.63802  -0.62412  -0.61270  -0.59881  -0.58825
 Alpha  occ. eigenvalues --   -0.56776  -0.55421  -0.54270  -0.53660  -0.53267
 Alpha  occ. eigenvalues --   -0.52708  -0.50524  -0.49419  -0.49106  -0.47631
 Alpha  occ. eigenvalues --   -0.47369  -0.46680  -0.46020  -0.45306  -0.43317
 Alpha virt. eigenvalues --    0.03700   0.04527   0.04951   0.05389   0.06363
 Alpha virt. eigenvalues --    0.06520   0.06723   0.07612   0.08077   0.08513
 Alpha virt. eigenvalues --    0.08910   0.09399   0.09497   0.09873   0.11749

  Beta  occ. eigenvalues --  -20.63641 -20.62495 -11.29234 -11.23826 -11.22775
  Beta  occ. eigenvalues --  -11.22721 -11.22238 -11.21826 -11.21361 -11.21220
  Beta  occ. eigenvalues --  -11.20975  -1.49408  -1.14620  -1.08994  -1.06030
  Beta  occ. eigenvalues --   -1.00846  -0.93580  -0.92965  -0.90985  -0.83576
  Beta  occ. eigenvalues --   -0.78909  -0.76536  -0.68549  -0.65273  -0.64581
  Beta  occ. eigenvalues --   -0.63195  -0.61278  -0.59758  -0.59055  -0.56621
  Beta  occ. eigenvalues --   -0.55633  -0.54362  -0.53675  -0.53099  -0.52952
  Beta  occ. eigenvalues --   -0.50639  -0.49524  -0.48797  -0.47945  -0.47298
  Beta  occ. eigenvalues --   -0.46063  -0.46002  -0.43896  -0.43609
  Beta virt. eigenvalues --    0.03699   0.04518   0.04951   0.05392   0.06334
  Beta virt. eigenvalues --    0.06524   0.06718   0.07622   0.08061   0.08402
  Beta virt. eigenvalues --    0.08850   0.09380   0.09493   0.09862   0.11046

 Mulliken atomic charges:
              1
     1  C   -0.328902
     2  H    0.074369
     3  H    0.065802
     4  H    0.098330
     5  C    0.916478
     6  H    0.063688
     7  C   -0.407887
     8  H    0.127608
     9  H    0.005416
    10  C   -0.664682
    11  H    0.077823
    12  H    0.046294
    13  C    0.938815
    14  H    0.036047
    15  C   -0.409900
    16  H    0.054342
    17  H    0.099770
    18  H    0.061736
    19  C   -0.660395
    20  H    0.073879
    21  H    0.092170
    22  H    0.074015
    23  C   -0.597611
    24  H    0.088296
    25  H    0.067513
    26  H    0.065142
    27  C   -0.064307
    28  H    0.151418
    29  O   -0.008653
    30  O   -0.136613
 Sum of Mulliken atomic charges =   0.00000

 Dipole moment (field-independent basis, Debye):
    X=              0.3137    Y=             -2.5218    Z=              0.2705  Tot=              2.5556
 Quadrupole moment (field-independent basis, Debye-Ang):
   XX=            -70.6716   YY=            -77.4032   ZZ=            -71.3949
   XY=              3.8796   XZ=             -0.5373   YZ=              0.6825

 Normal termination of Gaussian 09 at Wed Feb  5 07:23:20 2014.
