 Gaussian 09, Revision C.01,
 Gaussian 09:  EM64L-G09RevC.01 23-Sep-2011

 --------------------------
 #p cbs-qb3 opt=calcfc freq
 --------------------------

 (Enter /usr/caen/gaussian-09revc/g09/l101.exe)
 -----------------------------------------
 C9H18O_26_26 using cbs-qb3 to cal. energy
 -----------------------------------------
 Charge =  0 Multiplicity = 1

 SCF Done:  E(RB3LYP) =  -429.148863157     A.U. after   13 cycles
 SCF Done:  E(RB3LYP) =  -429.148877832     A.U. after    9 cycles
 Optimization completed.
    -- Stationary point found.
 Normal termination of Gaussian 09 at Tue Mar 11 10:49:50 2014.

 ---------------------------------------------------------
 #P Geom=AllCheck Guess=TCheck SCRF=Check B3LYP/CBSB7 Freq
 ---------------------------------------------------------

 Structure from the checkpoint file:  C9H18O_26_26.chk
 -----------------------------------------
 C9H18O_26_26 using cbs-qb3 to cal. energy
 -----------------------------------------
 Charge =  0 Multiplicity = 1

 SCF Done:  E(RB3LYP) =  -429.148877832     A.U. after    1 cycles

  Exact polarizability: 115.136   0.000 100.998   0.000  -0.642  98.758
 Approx polarizability: 149.845   0.000 142.775   0.000   0.601 143.055

                     1                      2                      3
                     A                      A                      A
 Frequencies --   117.3583               133.8914               195.9134
 Red. masses --     2.4998                 2.9521                 1.0279
 Frc consts  --     0.0203                 0.0312                 0.0232
 IR Inten    --     0.0189                 1.7587                 0.0533

                     4                      5                      6
                     A                      A                      A
 Frequencies --   238.7926               252.7930               253.9451
 Red. masses --     1.1408                 1.3995                 1.1169
 Frc consts  --     0.0383                 0.0527                 0.0424
 IR Inten    --     0.2029                 0.1404                 0.0154

                     7                      8                      9
                     A                      A                      A
 Frequencies --   283.5241               284.2328               311.8147
 Red. masses --     2.1839                 1.8760                 1.5266
 Frc consts  --     0.1034                 0.0893                 0.0875
 IR Inten    --     0.0464                 0.0331                 1.0696

                    10                     11                     12
                     A                      A                      A
 Frequencies --   316.1738               350.2987               402.0571
 Red. masses --     2.5141                 2.5872                 1.8206
 Frc consts  --     0.1481                 0.1871                 0.1734
 IR Inten    --     0.0056                 0.4572                 0.3801

                    13                     14                     15
                     A                      A                      A
 Frequencies --   410.0290               457.5969               468.7275
 Red. masses --     2.4165                 2.1773                 3.3982
 Frc consts  --     0.2394                 0.2686                 0.4399
 IR Inten    --     0.0747                 0.0847                 3.0470

                    16                     17                     18
                     A                      A                      A
 Frequencies --   491.7337               502.8680               587.6108
 Red. masses --     3.1685                 2.7206                 2.2686
 Frc consts  --     0.4514                 0.4053                 0.4615
 IR Inten    --     0.0009                 6.9464                 0.3738

                    19                     20                     21
                     A                      A                      A
 Frequencies --   695.3347               762.5899               827.3437
 Red. masses --     2.9456                 2.9200                 2.3252
 Frc consts  --     0.8391                 1.0005                 0.9377
 IR Inten    --     2.4252                 0.5871                11.6457

                    22                     23                     24
                     A                      A                      A
 Frequencies --   863.8400               878.0527               922.3934
 Red. masses --     1.5269                 2.6193                 1.9585
 Frc consts  --     0.6713                 1.1898                 0.9818
 IR Inten    --     0.3674                 0.7302                 0.7821

                    25                     26                     27
                     A                      A                      A
 Frequencies --   926.9139               927.5513               957.6269
 Red. masses --     1.6537                 1.4853                 1.7440
 Frc consts  --     0.8371                 0.7529                 0.9423
 IR Inten    --     1.2684                 0.0954                 2.4480

                    28                     29                     30
                     A                      A                      A
 Frequencies --   975.5238               996.7673              1006.0372
 Red. masses --     1.5754                 2.0679                 1.4251
 Frc consts  --     0.8833                 1.2105                 0.8498
 IR Inten    --     5.5370                66.5382                 1.7519

                    31                     32                     33
                     A                      A                      A
 Frequencies --  1016.8183              1064.4926              1064.9843
 Red. masses --     1.7714                 1.7489                 1.5806
 Frc consts  --     1.0791                 1.1676                 1.0562
 IR Inten    --    59.4035                 1.5021                 1.1133

                    34                     35                     36
                     A                      A                      A
 Frequencies --  1102.5299              1140.9381              1204.3193
 Red. masses --     1.4074                 1.8767                 2.3160
 Frc consts  --     1.0080                 1.4394                 1.9791
 IR Inten    --    17.0290                66.5742                 4.8995

                    37                     38                     39
                     A                      A                      A
 Frequencies --  1224.1559              1233.3119              1249.5612
 Red. masses --     2.0316                 3.1771                 1.7136
 Frc consts  --     1.7937                 2.8473                 1.5765
 IR Inten    --     7.4410                14.3510                49.3660

                    40                     41                     42
                     A                      A                      A
 Frequencies --  1266.2452              1268.4248              1321.5337
 Red. masses --     2.5401                 1.9445                 1.3491
 Frc consts  --     2.3996                 1.8433                 1.3882
 IR Inten    --    24.1524                 6.0364                 6.1184

                    43                     44                     45
                     A                      A                      A
 Frequencies --  1370.4452              1382.0765              1382.1375
 Red. masses --     1.4585                 1.3596                 1.5798
 Frc consts  --     1.6140                 1.5301                 1.7781
 IR Inten    --     0.0083                 1.7022                10.1944

                    46                     47                     48
                     A                      A                      A
 Frequencies --  1394.1450              1399.5658              1413.2079
 Red. masses --     1.2959                 1.3243                 1.2356
 Frc consts  --     1.4840                 1.5284                 1.4539
 IR Inten    --     0.0671                31.6910                19.7054

                    49                     50                     51
                     A                      A                      A
 Frequencies --  1418.8795              1472.2711              1478.2678
 Red. masses --     1.2394                 1.0605                 1.0591
 Frc consts  --     1.4701                 1.3544                 1.3637
 IR Inten    --     7.7672                 1.1070                 0.6145

                    52                     53                     54
                     A                      A                      A
 Frequencies --  1482.5342              1487.5918              1490.2973
 Red. masses --     1.0539                 1.0740                 1.0623
 Frc consts  --     1.3648                 1.4003                 1.3902
 IR Inten    --     0.0061                 2.6381                 5.4751

                    55                     56                     57
                     A                      A                      A
 Frequencies --  1494.9535              1496.9177              1502.8310
 Red. masses --     1.0595                 1.0607                 1.0760
 Frc consts  --     1.3951                 1.4004                 1.4318
 IR Inten    --     0.0366                 7.4027                 1.1109

                    58                     59                     60
                     A                      A                      A
 Frequencies --  1507.2988              1512.0984              1521.6898
 Red. masses --     1.0503                 1.0738                 1.0577
 Frc consts  --     1.4059                 1.4466                 1.4430
 IR Inten    --     6.5598                14.8010                 2.4424

                    61                     62                     63
                     A                      A                      A
 Frequencies --  3015.8834              3016.5761              3025.8298
 Red. masses --     1.0607                 1.0632                 1.0623
 Frc consts  --     5.6842                 5.7002                 5.7304
 IR Inten    --    14.3058                24.8714                15.4116

                    64                     65                     66
                     A                      A                      A
 Frequencies --  3030.3422              3031.0698              3037.1219
 Red. masses --     1.0351                 1.0361                 1.0378
 Frc consts  --     5.6002                 5.6086                 5.6399
 IR Inten    --     8.6054                34.5581                37.4833

                    67                     68                     69
                     A                      A                      A
 Frequencies --  3039.7523              3055.1709              3057.7368
 Red. masses --     1.0410                 1.0930                 1.1009
 Frc consts  --     5.6675                 6.0112                 6.0645
 IR Inten    --     9.4355                34.8188                33.6726

                    70                     71                     72
                     A                      A                      A
 Frequencies --  3066.9258              3094.6355              3097.2580
 Red. masses --     1.1041                 1.1007                 1.1006
 Frc consts  --     6.1186                 6.2106                 6.2204
 IR Inten    --    58.6962                14.9667                 4.5705

                    73                     74                     75
                     A                      A                      A
 Frequencies --  3102.5544              3104.7660              3108.8492
 Red. masses --     1.1014                 1.1002                 1.1026
 Frc consts  --     6.2466                 6.2487                 6.2785
 IR Inten    --    58.6636                47.8760                14.8365

                    76                     77                     78
                     A                      A                      A
 Frequencies --  3109.6393              3114.0657              3127.1043
 Red. masses --     1.1024                 1.1017                 1.0986
 Frc consts  --     6.2810                 6.2948                 6.3294
 IR Inten    --    49.4901                11.0910                44.7406

 - Thermochemistry -
 -------------------
 Temperature   298.150 Kelvin.  Pressure   1.00000 Atm.
 Atom     1 has atomic number  6 and mass  12.00000

 Molecular mass:   142.13577 amu.
 Principal axes and moments of inertia in atomic units:
                           1         2         3
     Eigenvalues --   991.433731608.032141796.48265
           X            1.00000   0.00000   0.00000
           Y            0.00000   0.99998  -0.00649
           Z            0.00000   0.00649   0.99998
 This molecule is an asymmetric top.
 Rotational symmetry number  1.
 Warning -- assumption of classical behavior for rotation
           may cause significant error
 Rotational temperatures (Kelvin)      0.08736     0.05386     0.04821
 Rotational constants (GHZ):           1.82033     1.12233     1.00460
 Zero-point vibrational energy     672296.2 (Joules/Mol)
                                  160.68264 (Kcal/Mol)
 Warning -- explicit consideration of  18 degrees of freedom as
           vibrations may cause significant error
 Vibrational temperatures:    168.85   192.64   281.88   343.57   363.71
          (Kelvin)            365.37   407.93   408.95   448.63   454.90
                              504.00   578.47   589.94   658.38   674.39
                              707.49   723.51   845.44  1000.43  1097.20
                             1190.36  1242.87  1263.32  1327.12  1333.62
                             1334.54  1377.81  1403.56  1434.12  1447.46
                             1462.97  1531.57  1532.27  1586.29  1641.55
                             1732.74  1761.29  1774.46  1797.84  1821.84
                             1824.98  1901.39  1971.76  1988.50  1988.59
                             2005.86  2013.66  2033.29  2041.45  2118.27
                             2126.89  2133.03  2140.31  2144.20  2150.90
                             2153.73  2162.24  2168.66  2175.57  2189.37
                             4339.18  4340.17  4353.49  4359.98  4361.03
                             4369.74  4373.52  4395.70  4399.40  4412.62
                             4452.48  4456.26  4463.88  4467.06  4472.94
                             4474.07  4480.44  4499.20

 Zero-point correction=                           0.256064 (Hartree/Particle)
 Thermal correction to Energy=                    0.267126
 Thermal correction to Enthalpy=                  0.268070
 Thermal correction to Gibbs Free Energy=         0.221330
 Sum of electronic and zero-point Energies=           -428.892814
 Sum of electronic and thermal Energies=              -428.881752
 Sum of electronic and thermal Enthalpies=            -428.880808
 Sum of electronic and thermal Free Energies=         -428.927548

                     E (Thermal)             CV                S
                      KCal/Mol        Cal/Mol-Kelvin    Cal/Mol-Kelvin
 Total                  167.624             44.925             98.373
 Electronic               0.000              0.000              0.000
 Translational            0.889              2.981             40.766
 Rotational               0.889              2.981             29.439
 Vibrational            165.847             38.963             28.168
 Vibration     1          0.608              1.935              3.143
 Vibration     2          0.613              1.919              2.889
 Vibration     3          0.636              1.846              2.171
 Vibration     4          0.657              1.781              1.812
 Vibration     5          0.664              1.758              1.711
 Vibration     6          0.665              1.756              1.703
 Vibration     7          0.682              1.704              1.512
 Vibration     8          0.683              1.703              1.508
 Vibration     9          0.700              1.651              1.353
 Vibration    10          0.703              1.643              1.330
 Vibration    11          0.727              1.575              1.165
 Vibration    12          0.768              1.466              0.955
 Vibration    13          0.774              1.448              0.927
 Vibration    14          0.816              1.344              0.773
 Vibration    15          0.826              1.319              0.741
 Vibration    16          0.847              1.268              0.679
 Vibration    17          0.858              1.244              0.651
 Vibration    18          0.945              1.058              0.471

 Optimization completed.
    -- Stationary point found.
 Normal termination of Gaussian 09 at Tue Mar 11 10:56:29 2014.

 -----------------------------------------------------------
 #P Geom=AllCheck Guess=TCheck SCRF=Check CCSD(T)/6-31+G(d')
 -----------------------------------------------------------

 Structure from the checkpoint file:  C9H18O_26_26.chk
 -----------------------------------------
 C9H18O_26_26 using cbs-qb3 to cal. energy
 -----------------------------------------
 Charge =  0 Multiplicity = 1

 SCF Done:  E(RHF) =  -426.160621627     A.U. after   12 cycles
 E2 =    -0.1401365475D+01 EUMP2 =    -0.42756198710192D+03
 CCSD(T)
 CCSD(T)= -0.42771490052D+03
 6501754\MP4SDQ=-427.6641387\CCSD=-427.6648751\CCSD(T)=-427.7149005\RMS
 Normal termination of Gaussian 09 at Tue Mar 11 14:06:50 2014.

 -----------------------------------------------------
 #P Geom=AllCheck Guess=TCheck SCRF=Check MP4SDQ/CBSB4
 -----------------------------------------------------

 Structure from the checkpoint file:  C9H18O_26_26.chk
 -----------------------------------------
 C9H18O_26_26 using cbs-qb3 to cal. energy
 -----------------------------------------
 Charge =  0 Multiplicity = 1

 SCF Done:  E(RHF) =  -426.183716191     A.U. after   10 cycles
 E2 =    -0.1519390555D+01 EUMP2 =    -0.42770310674508D+03
 Normal termination of Gaussian 09 at Tue Mar 11 14:13:47 2014.

 ----------------------------------------------------------------------
 #P Geom=AllCheck Guess=TCheck SCRF=Check MP2/CBSB3 CBSExtrap=(NMin=10,
 MinPop)
 ----------------------------------------------------------------------

 Structure from the checkpoint file:  C9H18O_26_26.chk
 -----------------------------------------
 C9H18O_26_26 using cbs-qb3 to cal. energy
 -----------------------------------------
 Charge =  0 Multiplicity = 1

                         Standard orientation:
 ---------------------------------------------------------------------
 Center     Atomic      Atomic             Coordinates (Angstroms)
 Number     Number       Type             X           Y           Z
 ---------------------------------------------------------------------
      1          6           0       -2.262826   -1.022353   -0.908930
      2          1           0       -1.972574   -0.956049   -1.959340
      3          1           0       -3.273186   -0.619950   -0.794726
      4          1           0       -2.272877   -2.077084   -0.624000
      5          6           0       -1.250857    1.239097   -0.439253
      6          1           0       -1.280611    1.304302   -1.533058
      7          1           0       -2.160299    1.720828   -0.065889
      8          6           0       -0.000001    1.967353    0.060685
      9          1           0       -0.000002    2.027759    1.154244
     10          1           0       -0.000001    3.000039   -0.301153
     11          6           0        1.250857    1.239098   -0.439250
     12          1           0        2.160298    1.720828   -0.065882
     13          1           0        1.280615    1.304305   -1.533055
     14          6           0        1.265917   -0.249455   -0.039866
     15          6           0        2.262825   -1.022351   -0.908932
     16          1           0        3.273185   -0.619948   -0.794728
     17          1           0        2.272876   -2.077083   -0.624003
     18          1           0        1.972573   -0.956046   -1.959342
     19          6           0       -1.645071   -0.435522    1.441378
     20          1           0       -2.699367   -0.185766    1.591716
     21          1           0       -1.494228   -1.477360    1.732120
     22          1           0       -1.059549    0.193363    2.112456
     23          6           0        1.645072   -0.435524    1.441377
     24          1           0        1.494229   -1.477363    1.732118
     25          1           0        2.699369   -0.185769    1.591713
     26          1           0        1.059552    0.193361    2.112457
     27          6           0       -1.265918   -0.249455   -0.039866
     28          8           0        0.000000   -0.877212   -0.346962
 ---------------------------------------------------------------------

 SCF Done:  E(RHF) =  -426.294454217     A.U. after   11 cycles
 E2 =    -0.1779969025D+01 EUMP2 =    -0.42807442324249D+03
 E2(CBS)=      -1.948701 CBS-Int=       0.058498 OIii=      15.555577

 The electronic state is 1-A.
 Alpha  occ. eigenvalues --  -20.53441 -11.27932 -11.27931 -11.21905 -11.21539
 Alpha  occ. eigenvalues --  -11.21533 -11.20685 -11.20685 -11.20295 -11.20295
 Alpha  occ. eigenvalues --   -1.35168  -1.08727  -1.07875  -0.99714  -0.93572
 Alpha  occ. eigenvalues --   -0.92491  -0.91922  -0.82892  -0.79090  -0.70829
 Alpha  occ. eigenvalues --   -0.64868  -0.63477  -0.62133  -0.61062  -0.59568
 Alpha  occ. eigenvalues --   -0.57482  -0.56613  -0.55760  -0.53355  -0.53188
 Alpha  occ. eigenvalues --   -0.51382  -0.51119  -0.50586  -0.50569  -0.48482
 Alpha  occ. eigenvalues --   -0.47160  -0.46299  -0.44551  -0.41545  -0.39580
 Alpha virt. eigenvalues --    0.04003   0.04985   0.05207   0.05383   0.06763
 Alpha virt. eigenvalues --    0.07041   0.07266   0.07291   0.07586   0.09382
 Alpha virt. eigenvalues --    0.09812   0.09882   0.09950   0.10488   0.10529

 Mulliken atomic charges:
              1
     1  C   -0.092637
     2  H    0.079348
     3  H    0.062521
     4  H    0.091666
     5  C   -0.409178
     6  H    0.076515
     7  H    0.083654
     8  C   -0.316978
     9  H    0.065407
    10  H    0.071233
    11  C   -0.409178
    12  H    0.083655
    13  H    0.076515
    14  C    0.734295
    15  C   -0.092638
    16  H    0.062521
    17  H    0.091666
    18  H    0.079347
    19  C   -0.643696
    20  H    0.076064
    21  H    0.095547
    22  H    0.056817
    23  C   -0.643697
    24  H    0.095547
    25  H    0.076064
    26  H    0.056817
    27  C    0.734296
    28  O   -0.241495
 Sum of Mulliken atomic charges =   0.00000

 Dipole moment (field-independent basis, Debye):
    X=              0.0000    Y=              1.3288    Z=              0.5401  Tot=              1.4343
 Quadrupole moment (field-independent basis, Debye-Ang):
   XX=            -63.3414   YY=            -66.6089   ZZ=            -65.7895
   XY=              0.0000   XZ=              0.0000   YZ=             -1.0014

 Normal termination of Gaussian 09 at Tue Mar 11 14:49:05 2014.
