 Gaussian 09, Revision C.01,

 -------------------------------------------------
 #p B3LYP/6-311++G(d,p) guess=mix stable=(opt,xqc)
 -------------------------------------------------

 (Enter /usr/caen/gaussian-09revc/g09/l101.exe)
 ---------------------------------------
 C9H18_1_26 using cbs-qb3 to cal. energy
 ---------------------------------------
 Charge =  0 Multiplicity = 1

 SCF Done:  E(RB3LYP) =  -353.897614062     A.U. after   13 cycles
 Normal termination of Gaussian 09 at Sun Feb  9 03:53:31 2014.
 Gaussian 09:  EM64L-G09RevC.01 23-Sep-2011

 ------------------------------------------------
 #p cbs-qb3 opt=calcfc freq geom=check guess=read
 ------------------------------------------------

 ---------------------
 optimization and freq
 ---------------------
 Structure from the checkpoint file:  C9H18_1_26.chk
 Charge =  0 Multiplicity = 1

 SCF Done:  E(RB3LYP) =  -353.895623668     A.U. after    8 cycles
 SCF Done:  E(RB3LYP) =  -353.895626555     A.U. after    9 cycles
 Optimization completed.
    -- Stationary point found.
 Normal termination of Gaussian 09 at Sun Feb  9 04:00:11 2014.

 ---------------------------------------------------------
 #P Geom=AllCheck Guess=TCheck SCRF=Check B3LYP/CBSB7 Freq
 ---------------------------------------------------------

 Structure from the checkpoint file:  C9H18_1_26.chk
 ---------------------
 optimization and freq
 ---------------------
 Charge =  0 Multiplicity = 1

 SCF Done:  E(RB3LYP) =  -353.895626555     A.U. after    1 cycles

  Exact polarizability: 137.078   4.293 100.228   6.741   2.774  86.315
 Approx polarizability: 163.969  10.437 141.409  13.528   7.092 132.270

                     1                      2                      3
                     A                      A                      A
 Frequencies --    32.4326                48.6353                88.0456
 Red. masses --     2.5797                 2.8746                 2.7116
 Frc consts  --     0.0016                 0.0040                 0.0124
 IR Inten    --     0.0776                 0.0302                 0.2219

                     4                      5                      6
                     A                      A                      A
 Frequencies --   113.4712               139.3989               189.7311
 Red. masses --     2.0097                 1.0489                 1.2316
 Frc consts  --     0.0152                 0.0120                 0.0261
 IR Inten    --     0.0281                 0.1100                 0.6639

                     7                      8                      9
                     A                      A                      A
 Frequencies --   223.3934               236.0219               256.8970
 Red. masses --     1.5856                 1.2913                 1.1408
 Frc consts  --     0.0466                 0.0424                 0.0444
 IR Inten    --     0.0345                 0.0509                 0.0132

                    10                     11                     12
                     A                      A                      A
 Frequencies --   282.9029               304.0353               382.9395
 Red. masses --     2.4298                 2.2723                 2.1476
 Frc consts  --     0.1146                 0.1238                 0.1856
 IR Inten    --     0.1335                 0.7822                 0.2061

                    13                     14                     15
                     A                      A                      A
 Frequencies --   393.9418               429.0143               441.4707
 Red. masses --     2.4602                 2.3900                 2.2009
 Frc consts  --     0.2250                 0.2592                 0.2527
 IR Inten    --     1.2815                 1.3260                 2.2438

                    16                     17                     18
                     A                      A                      A
 Frequencies --   492.0799               555.7122               759.6308
 Red. masses --     2.1509                 2.5944                 1.5331
 Frc consts  --     0.3069                 0.4720                 0.5212
 IR Inten    --     0.5157                 3.5532                 1.4574

                    19                     20                     21
                     A                      A                      A
 Frequencies --   792.6525               827.3498               865.6525
 Red. masses --     2.2588                 1.8608                 1.5927
 Frc consts  --     0.8362                 0.7505                 0.7032
 IR Inten    --     0.4439                 3.4153                 6.7977

                    22                     23                     24
                     A                      A                      A
 Frequencies --   930.3329               944.6794               960.2698
 Red. masses --     1.2174                 1.6763                 1.4983
 Frc consts  --     0.6208                 0.8814                 0.8140
 IR Inten    --     1.8393                 4.2550                 0.8078

                    25                     26                     27
                     A                      A                      A
 Frequencies --   962.4357               968.5915              1016.4477
 Red. masses --     1.3900                 1.6668                 1.2542
 Frc consts  --     0.7586                 0.9213                 0.7634
 IR Inten    --     0.0988                 0.4184                 3.3024

                    28                     29                     30
                     A                      A                      A
 Frequencies --  1020.6140              1038.0181              1102.6553
 Red. masses --     2.7221                 2.1520                 1.6667
 Frc consts  --     1.6706                 1.3661                 1.1940
 IR Inten    --     1.2541                 0.1586                 0.2831

                    31                     32                     33
                     A                      A                      A
 Frequencies --  1107.7966              1134.5319              1145.7534
 Red. masses --     1.4850                 1.9178                 2.2345
 Frc consts  --     1.0737                 1.4544                 1.7283
 IR Inten    --     6.3112                 4.9900                 5.1785

                    34                     35                     36
                     A                      A                      A
 Frequencies --  1190.2222              1213.0254              1253.8801
 Red. masses --     1.7581                 2.0331                 1.7389
 Frc consts  --     1.4674                 1.7626                 1.6108
 IR Inten    --     4.4788                 1.2207                 7.3677

                    37                     38                     39
                     A                      A                      A
 Frequencies --  1283.2514              1318.0164              1345.5629
 Red. masses --     1.3051                 1.1481                 1.3322
 Frc consts  --     1.2663                 1.1750                 1.4211
 IR Inten    --     0.2762                 0.5961                 0.8436

                    40                     41                     42
                     A                      A                      A
 Frequencies --  1369.4004              1378.2920              1389.9813
 Red. masses --     1.3391                 1.3619                 1.4351
 Frc consts  --     1.4795                 1.5243                 1.6336
 IR Inten    --     3.3375                 5.5116                 0.5979

                    43                     44                     45
                     A                      A                      A
 Frequencies --  1402.9426              1411.3268              1421.0158
 Red. masses --     1.2557                 1.3614                 1.2552
 Frc consts  --     1.4562                 1.5976                 1.4934
 IR Inten    --     7.1406                 9.2137                 1.6693

                    46                     47                     48
                     A                      A                      A
 Frequencies --  1423.0418              1473.9005              1478.0334
 Red. masses --     1.2414                 1.0464                 1.0709
 Frc consts  --     1.4811                 1.3394                 1.3783
 IR Inten    --     7.2327                 0.5335                 0.7185

                    49                     50                     51
                     A                      A                      A
 Frequencies --  1486.1941              1491.8423              1493.2543
 Red. masses --     1.0588                 1.0443                 1.0426
 Frc consts  --     1.3778                 1.3694                 1.3697
 IR Inten    --     2.2298                 4.5365                13.8973

                    52                     53                     54
                     A                      A                      A
 Frequencies --  1496.9083              1498.7587              1504.8457
 Red. masses --     1.0643                 1.0697                 1.0841
 Frc consts  --     1.4051                 1.4157                 1.4464
 IR Inten    --     0.7290                 3.5627                 2.7692

                    55                     56                     57
                     A                      A                      A
 Frequencies --  1507.9406              1514.0752              1734.2382
 Red. masses --     1.0598                 1.0489                 6.4236
 Frc consts  --     1.4198                 1.4167                11.3828
 IR Inten    --     4.7224                16.2749                 1.3939

                    58                     59                     60
                     A                      A                      A
 Frequencies --  2984.6961              2988.7127              3002.6928
 Red. masses --     1.0819                 1.0706                 1.0455
 Frc consts  --     5.6786                 5.6346                 5.5537
 IR Inten    --     6.9889                22.0881                13.4006

                    61                     62                     63
                     A                      A                      A
 Frequencies --  3003.0737              3011.0596              3012.9164
 Red. masses --     1.0531                 1.0411                 1.0362
 Frc consts  --     5.5955                 5.5615                 5.5418
 IR Inten    --    56.7161                61.0189                33.1867

                    64                     65                     66
                     A                      A                      A
 Frequencies --  3018.6416              3034.4435              3043.0376
 Red. masses --     1.0383                 1.1003                 1.0993
 Frc consts  --     5.5742                 5.9693                 5.9979
 IR Inten    --    28.4162                25.9112                14.0380

                    67                     68                     69
                     A                      A                      A
 Frequencies --  3047.7697              3071.7921              3078.0944
 Red. masses --     1.0988                 1.1006                 1.0978
 Frc consts  --     6.0135                 6.1187                 6.1284
 IR Inten    --    42.7287                 3.5285                31.1603

                    70                     71                     72
                     A                      A                      A
 Frequencies --  3079.3024              3082.5801              3091.8210
 Red. masses --     1.0951                 1.0996                 1.0981
 Frc consts  --     6.1179                 6.1564                 6.1846
 IR Inten    --    60.1376                54.2499                45.1232

                    73                     74                     75
                     A                      A                      A
 Frequencies --  3097.3505              3106.2435              3120.7181
 Red. masses --     1.0977                 1.0892                 1.0940
 Frc consts  --     6.2044                 6.1918                 6.2775
 IR Inten    --     4.2593                60.6463                35.3082

 - Thermochemistry -
 -------------------
 Temperature   298.150 Kelvin.  Pressure   1.00000 Atm.
 Atom     1 has atomic number  6 and mass  12.00000

 Molecular mass:   126.14085 amu.
 Principal axes and moments of inertia in atomic units:
                           1         2         3
     Eigenvalues --   511.554093075.601443350.48576
           X            1.00000   0.00033   0.00101
           Y           -0.00033   1.00000  -0.00072
           Z           -0.00101   0.00072   1.00000
 This molecule is an asymmetric top.
 Rotational symmetry number  1.
 Warning -- assumption of classical behavior for rotation
           may cause significant error
 Rotational temperatures (Kelvin)      0.16932     0.02816     0.02585
 Rotational constants (GHZ):           3.52796     0.58679     0.53865
 Zero-point vibrational energy     652816.7 (Joules/Mol)
                                  156.02694 (Kcal/Mol)
 Warning -- explicit consideration of  17 degrees of freedom as
           vibrations may cause significant error
 Vibrational temperatures:     46.66    69.98   126.68   163.26   200.56
          (Kelvin)            272.98   321.41   339.58   369.62   407.03
                              437.44   550.96   566.79   617.26   635.18
                              707.99   799.54  1092.94  1140.45  1190.37
                             1245.48  1338.54  1359.18  1381.61  1384.73
                             1393.59  1462.44  1468.43  1493.47  1586.47
                             1593.87  1632.34  1648.48  1712.46  1745.27
                             1804.05  1846.31  1896.33  1935.96  1970.26
                             1983.05  1999.87  2018.52  2030.58  2044.52
                             2047.44  2120.61  2126.56  2138.30  2146.43
                             2148.46  2153.71  2156.38  2165.13  2169.59
                             2178.41  2495.18  4294.31  4300.09  4320.20
                             4320.75  4332.24  4334.91  4343.15  4365.88
                             4378.25  4385.06  4419.62  4428.69  4430.42
                             4435.14  4448.44  4456.39  4469.19  4490.01

 Zero-point correction=                           0.248645 (Hartree/Particle)
 Thermal correction to Energy=                    0.260769
 Thermal correction to Enthalpy=                  0.261713
 Thermal correction to Gibbs Free Energy=         0.210154
 Sum of electronic and zero-point Energies=           -353.646982
 Sum of electronic and thermal Energies=              -353.634858
 Sum of electronic and thermal Enthalpies=            -353.633913
 Sum of electronic and thermal Free Energies=         -353.685472

                     E (Thermal)             CV                S
                      KCal/Mol        Cal/Mol-Kelvin    Cal/Mol-Kelvin
 Total                  163.635             43.811            108.515
 Electronic               0.000              0.000              0.000
 Translational            0.889              2.981             40.410
 Rotational               0.889              2.981             30.045
 Vibrational            161.858             37.850             38.059
 Vibration     1          0.594              1.983              5.675
 Vibration     2          0.595              1.978              4.872
 Vibration     3          0.601              1.958              3.703
 Vibration     4          0.607              1.938              3.209
 Vibration     5          0.615              1.914              2.812
 Vibration     6          0.633              1.854              2.230
 Vibration     7          0.649              1.805              1.931
 Vibration     8          0.655              1.786              1.833
 Vibration     9          0.666              1.751              1.683
 Vibration    10          0.682              1.705              1.516
 Vibration    11          0.695              1.666              1.395
 Vibration    12          0.752              1.507              1.028
 Vibration    13          0.761              1.483              0.985
 Vibration    14          0.790              1.407              0.862
 Vibration    15          0.801              1.380              0.822
 Vibration    16          0.848              1.268              0.678
 Vibration    17          0.911              1.127              0.532

 Optimization completed.
    -- Stationary point found.
 Normal termination of Gaussian 09 at Sun Feb  9 04:05:55 2014.

 -----------------------------------------------------------
 #P Geom=AllCheck Guess=TCheck SCRF=Check CCSD(T)/6-31+G(d')
 -----------------------------------------------------------

 Structure from the checkpoint file:  C9H18_1_26.chk
 ---------------------
 optimization and freq
 ---------------------
 Charge =  0 Multiplicity = 1

 SCF Done:  E(RHF) =  -351.283893498     A.U. after   13 cycles
 E2 =    -0.1201862325D+01 EUMP2 =    -0.35248575582259D+03
 CCSD(T)
 CCSD(T)= -0.35263495604D+03
 -352.579131\MP4SDQ=-352.5894264\CCSD=-352.5916734\CCSD(T)=-352.634956\
 Normal termination of Gaussian 09 at Sun Feb  9 05:31:45 2014.

 -----------------------------------------------------
 #P Geom=AllCheck Guess=TCheck SCRF=Check MP4SDQ/CBSB4
 -----------------------------------------------------

 Structure from the checkpoint file:  C9H18_1_26.chk
 ---------------------
 optimization and freq
 ---------------------
 Charge =  0 Multiplicity = 1

 SCF Done:  E(RHF) =  -351.307517689     A.U. after   11 cycles
 E2 =    -0.1320438521D+01 EUMP2 =    -0.35262795621072D+03
 Normal termination of Gaussian 09 at Sun Feb  9 05:37:18 2014.

 ----------------------------------------------------------------------
 #P Geom=AllCheck Guess=TCheck SCRF=Check MP2/CBSB3 CBSExtrap=(NMin=10,
 MinPop)
 ----------------------------------------------------------------------

 Structure from the checkpoint file:  C9H18_1_26.chk
 ---------------------
 optimization and freq
 ---------------------
 Charge =  0 Multiplicity = 1

                         Standard orientation:
 ---------------------------------------------------------------------
 Center     Atomic      Atomic             Coordinates (Angstroms)
 Number     Number       Type             X           Y           Z
 ---------------------------------------------------------------------
      1          6           0        3.744979   -0.838915    0.227751
      2          1           0        3.613086   -1.882386   -0.064924
      3          1           0        4.051434   -0.815422    1.280483
      4          1           0        4.581324   -0.426006   -0.349239
      5          6           0        1.384296   -0.602230   -0.487500
      6          1           0        1.438591   -1.666434   -0.717292
      7          6           0        0.044537    0.022769   -0.766261
      8          1           0       -0.216448   -0.157509   -1.818603
      9          1           0        0.086996    1.106681   -0.644583
     10          6           0       -1.073614   -0.565635    0.117009
     11          1           0       -0.869935   -0.315409    1.166141
     12          1           0       -1.027379   -1.659733    0.053097
     13          6           0       -2.500820   -0.114733   -0.246291
     14          1           0       -2.661331   -0.350341   -1.307645
     15          6           0       -3.536610   -0.901088    0.569403
     16          1           0       -3.420066   -0.704484    1.640823
     17          1           0       -4.557011   -0.621776    0.290643
     18          1           0       -3.430383   -1.979021    0.415811
     19          6           0       -2.705703    1.395871   -0.063184
     20          1           0       -3.730433    1.684774   -0.314639
     21          1           0       -2.525024    1.688178    0.977503
     22          1           0       -2.035371    1.982347   -0.696150
     23          6           0        2.608535    1.420685    0.398638
     24          1           0        3.390331    1.913127   -0.191866
     25          1           0        1.684160    1.981730    0.265130
     26          1           0        2.908758    1.513230    1.448954
     27          6           0        2.487517   -0.031980    0.011494
 ---------------------------------------------------------------------

 SCF Done:  E(RHF) =  -351.394655145     A.U. after   11 cycles
 E2 =    -0.1533865407D+01 EUMP2 =    -0.35292852055184D+03
 E2(CBS)=      -1.679263 CBS-Int=       0.052318 OIii=      13.709620

 The electronic state is 1-A.
 Alpha  occ. eigenvalues --  -11.22842 -11.22201 -11.21613 -11.21513 -11.21355
 Alpha  occ. eigenvalues --  -11.21252 -11.21138 -11.20724 -11.20691  -1.10267
 Alpha  occ. eigenvalues --   -1.07830  -1.00717  -0.93628  -0.92530  -0.91435
 Alpha  occ. eigenvalues --   -0.83479  -0.76050  -0.70358  -0.64393  -0.61422
 Alpha  occ. eigenvalues --   -0.60814  -0.59065  -0.58258  -0.57234  -0.54575
 Alpha  occ. eigenvalues --   -0.53142  -0.53102  -0.51514  -0.51251  -0.50527
 Alpha  occ. eigenvalues --   -0.49202  -0.47018  -0.45625  -0.45148  -0.44282
 Alpha  occ. eigenvalues --   -0.33009
 Alpha virt. eigenvalues --    0.03999   0.04804   0.04957   0.05581   0.06363
 Alpha virt. eigenvalues --    0.06584   0.07019   0.07685   0.08191   0.08583
 Alpha virt. eigenvalues --    0.08765   0.09666   0.10229   0.10351   0.11447

 Mulliken atomic charges:
              1
     1  C   -0.377128
     2  H    0.088983
     3  H    0.060926
     4  H    0.051382
     5  C    0.120678
     6  H    0.152164
     7  C    0.232581
     8  H    0.070903
     9  H    0.070765
    10  C   -0.873543
    11  H    0.095351
    12  H    0.044379
    13  C    0.941602
    14  H    0.032750
    15  C   -0.421108
    16  H    0.054231
    17  H    0.084763
    18  H    0.054861
    19  C   -0.568297
    20  H    0.080423
    21  H    0.067205
    22  H    0.068176
    23  C   -0.535302
    24  H    0.067042
    25  H    0.066770
    26  H    0.074262
    27  C    0.195180
 Sum of Mulliken atomic charges =   0.00000

 Dipole moment (field-independent basis, Debye):
    X=              0.0798    Y=              0.1831    Z=              0.0147  Tot=              0.2003
 Quadrupole moment (field-independent basis, Debye-Ang):
   XX=            -60.0671   YY=            -60.3873   ZZ=            -61.6139
   XY=              0.5441   XZ=              1.3998   YZ=              0.7795

 Normal termination of Gaussian 09 at Sun Feb  9 05:56:55 2014.
