 Gaussian 09, Revision C.01,

 --------------------------------------------------
 #p UB3LYP/6-311++G(d,p) guess=mix stable=(opt,xqc)
 --------------------------------------------------

 (Enter /usr/caen/gaussian-09revc/g09/l101.exe)
 --------------------------------------------
 C9H18OOH_3_26_g using cbs-qb3 to cal. energy
 --------------------------------------------
 Charge =  0 Multiplicity = 2

 SCF Done:  E(UB3LYP) =  -504.846667916     A.U. after   17 cycles
 Normal termination of Gaussian 09 at Sun Feb  9 08:25:50 2014.
 Gaussian 09:  EM64L-G09RevC.01 23-Sep-2011

 ------------------------------------------------
 #p cbs-qb3 opt=calcfc freq geom=check guess=read
 ------------------------------------------------

 ---------------------
 optimization and freq
 ---------------------
 Structure from the checkpoint file:  C9H18OOH_3_26_g.chk
 Charge =  0 Multiplicity = 2

 SCF Done:  E(UB3LYP) =  -504.838663768     A.U. after   11 cycles
 SCF Done:  E(UB3LYP) =  -504.838747246     A.U. after   12 cycles
 SCF Done:  E(UB3LYP) =  -504.838747802     A.U. after    8 cycles
 SCF Done:  E(UB3LYP) =  -504.838747815     A.U. after    6 cycles
 Optimization completed.
    -- Stationary point found.
 Normal termination of Gaussian 09 at Sun Feb  9 08:38:50 2014.

 ---------------------------------------------------------
 #P Geom=AllCheck Guess=TCheck SCRF=Check B3LYP/CBSB7 Freq
 ---------------------------------------------------------

 Structure from the checkpoint file:  C9H18OOH_3_26_g.chk
 ---------------------
 optimization and freq
 ---------------------
 Charge =  0 Multiplicity = 2

 SCF Done:  E(UB3LYP) =  -504.838747815     A.U. after    1 cycles

  Exact polarizability: 131.844  -1.879 114.209   1.348  -0.992  94.939
 Approx polarizability: 151.474  -6.059 158.685   4.403  -3.182 150.165

                     1                      2                      3
                     A                      A                      A
 Frequencies --    43.4383                56.5535                58.3670
 Red. masses --     2.7603                 3.0171                 3.7556
 Frc consts  --     0.0031                 0.0057                 0.0075
 IR Inten    --     0.1070                 0.4719                 1.7345

                     4                      5                      6
                     A                      A                      A
 Frequencies --    98.7750               127.7200               138.8562
 Red. masses --     3.4057                 1.9630                 1.3656
 Frc consts  --     0.0196                 0.0189                 0.0155
 IR Inten    --     0.7899                 1.0052                 2.1973

                     7                      8                      9
                     A                      A                      A
 Frequencies --   148.1045               215.0647               216.8569
 Red. masses --     2.4438                 1.6606                 1.3431
 Frc consts  --     0.0316                 0.0453                 0.0372
 IR Inten    --     1.9563                20.3134                12.7270

                    10                     11                     12
                     A                      A                      A
 Frequencies --   226.0875               242.0877               248.2377
 Red. masses --     1.8559                 1.3050                 1.3215
 Frc consts  --     0.0559                 0.0451                 0.0480
 IR Inten    --    16.4291                31.5588                59.2829

                    13                     14                     15
                     A                      A                      A
 Frequencies --   282.8908               291.5023               315.3392
 Red. masses --     2.0557                 2.0169                 1.6169
 Frc consts  --     0.0969                 0.1010                 0.0947
 IR Inten    --     0.7850                 3.5937                 7.3630

                    16                     17                     18
                     A                      A                      A
 Frequencies --   355.7649               399.1825               421.3932
 Red. masses --     1.8380                 2.3483                 2.1498
 Frc consts  --     0.1371                 0.2205                 0.2249
 IR Inten    --     2.8736                 1.6377                 5.2488

                    19                     20                     21
                     A                      A                      A
 Frequencies --   422.6841               460.0338               501.7420
 Red. masses --     2.9033                 2.4023                 3.1026
 Frc consts  --     0.3056                 0.2995                 0.4602
 IR Inten    --     3.1390                 1.2619                 2.2090

                    22                     23                     24
                     A                      A                      A
 Frequencies --   552.8408               584.2143               752.7747
 Red. masses --     2.0412                 2.9179                 1.3518
 Frc consts  --     0.3676                 0.5868                 0.4513
 IR Inten    --    44.8991                 5.4370                 0.0789

                    25                     26                     27
                     A                      A                      A
 Frequencies --   827.3331               862.8349               879.9316
 Red. masses --     2.3298                 2.4623                 2.1583
 Frc consts  --     0.9396                 1.0801                 0.9846
 IR Inten    --     3.4085                 2.2735                11.6695

                    28                     29                     30
                     A                      A                      A
 Frequencies --   925.1522               933.0424               937.5760
 Red. masses --     1.4614                 1.9606                 1.1922
 Frc consts  --     0.7370                 1.0056                 0.6175
 IR Inten    --     1.0463                 8.1449                 1.1434

                    31                     32                     33
                     A                      A                      A
 Frequencies --   947.8560               962.9062               966.8907
 Red. masses --     4.3121                 1.6514                 1.4328
 Frc consts  --     2.2826                 0.9021                 0.7892
 IR Inten    --     1.4058                 1.5503                 0.5960

                    34                     35                     36
                     A                      A                      A
 Frequencies --  1004.9206              1019.7597              1046.3288
 Red. masses --     3.4461                 1.7781                 2.7670
 Frc consts  --     2.0504                 1.0895                 1.7848
 IR Inten    --     3.4028                12.0849                 8.5139

                    37                     38                     39
                     A                      A                      A
 Frequencies --  1067.7387              1124.0201              1140.2059
 Red. masses --     2.1485                 1.8148                 2.2431
 Frc consts  --     1.4432                 1.3509                 1.7182
 IR Inten    --     0.3044                 4.9712                 2.9191

                    40                     41                     42
                     A                      A                      A
 Frequencies --  1158.5234              1186.4197              1194.2632
 Red. masses --     2.1059                 2.3342                 1.8495
 Frc consts  --     1.6653                 1.9358                 1.5542
 IR Inten    --     5.5756                 0.0892                 1.8881

                    43                     44                     45
                     A                      A                      A
 Frequencies --  1235.4740              1271.9947              1307.2444
 Red. masses --     1.5129                 1.2774                 1.2905
 Frc consts  --     1.3606                 1.2177                 1.2994
 IR Inten    --     8.0283                 1.3104                 0.8947

                    46                     47                     48
                     A                      A                      A
 Frequencies --  1319.8636              1332.3178              1348.8110
 Red. masses --     1.1687                 1.2839                 1.2557
 Frc consts  --     1.1996                 1.3427                 1.3459
 IR Inten    --     1.3782                 6.0284                 2.6317

                    49                     50                     51
                     A                      A                      A
 Frequencies --  1358.5435              1363.8699              1374.3026
 Red. masses --     1.1902                 1.2487                 1.3453
 Frc consts  --     1.2942                 1.3685                 1.4971
 IR Inten    --    39.4639                 2.6555                 2.1614

                    52                     53                     54
                     A                      A                      A
 Frequencies --  1388.3524              1396.1151              1401.5330
 Red. masses --     1.3591                 1.3099                 1.2612
 Frc consts  --     1.5434                 1.5043                 1.4596
 IR Inten    --     2.3352                 6.5540                11.9029

                    55                     56                     57
                     A                      A                      A
 Frequencies --  1405.6255              1422.6701              1460.9821
 Red. masses --     1.3712                 1.2225                 1.1736
 Frc consts  --     1.5962                 1.4578                 1.4760
 IR Inten    --     3.6673                 8.7558                 1.4490

                    58                     59                     60
                     A                      A                      A
 Frequencies --  1477.5154              1492.9495              1493.3060
 Red. masses --     1.0838                 1.0547                 1.0559
 Frc consts  --     1.3940                 1.3850                 1.3873
 IR Inten    --     2.3788                 1.3886                 1.6907

                    61                     62                     63
                     A                      A                      A
 Frequencies --  1496.6769              1501.0652              1505.2721
 Red. masses --     1.0488                 1.0441                 1.0904
 Frc consts  --     1.3842                 1.3862                 1.4557
 IR Inten    --     6.8956                 4.5324                 3.8334

                    64                     65                     66
                     A                      A                      A
 Frequencies --  1508.3328              1527.3661              2985.2964
 Red. masses --     1.0583                 1.0475                 1.0802
 Frc consts  --     1.4186                 1.4398                 5.6717
 IR Inten    --     8.1427                12.5365                 7.3621

                    67                     68                     69
                     A                      A                      A
 Frequencies --  2999.4485              3003.1706              3016.6274
 Red. masses --     1.0815                 1.0705                 1.0483
 Frc consts  --     5.7328                 5.6887                 5.6204
 IR Inten    --    15.8876                11.4584                15.9152

                    70                     71                     72
                     A                      A                      A
 Frequencies --  3017.7371              3020.7112              3024.8556
 Red. masses --     1.0528                 1.0377                 1.0373
 Frc consts  --     5.6486                 5.5786                 5.5919
 IR Inten    --    46.3226                24.8236                21.6790

                    73                     74                     75
                     A                      A                      A
 Frequencies --  3038.1884              3061.3139              3078.0487
 Red. masses --     1.0810                 1.0914                 1.0990
 Frc consts  --     5.8791                 6.0262                 6.1349
 IR Inten    --    34.5012                 1.8744                10.6484

                    76                     77                     78
                     A                      A                      A
 Frequencies --  3081.3233              3083.5404              3087.5078
 Red. masses --     1.1005                 1.1009                 1.1003
 Frc consts  --     6.1564                 6.1672                 6.1801
 IR Inten    --     7.8801                53.7702                65.2867

                    79                     80                     81
                     A                      A                      A
 Frequencies --  3091.8045              3092.5489              3097.0882
 Red. masses --     1.1020                 1.1020                 1.0998
 Frc consts  --     6.2065                 6.2093                 6.2157
 IR Inten    --    42.5606                38.5601                39.2025

                    82                     83                     84
                     A                      A                      A
 Frequencies --  3121.5314              3223.3868              3772.1140
 Red. masses --     1.0511                 1.1175                 1.0685
 Frc consts  --     6.0342                 6.8412                 8.9579
 IR Inten    --    16.8445                19.2930                30.9882

 - Thermochemistry -
 -------------------
 Temperature   298.150 Kelvin.  Pressure   1.00000 Atm.
 Atom     1 has atomic number  6 and mass  12.00000

 Molecular mass:   159.13850 amu.
 Principal axes and moments of inertia in atomic units:
                           1         2         3
     Eigenvalues --  1047.772873594.608494391.30286
           X            0.99984   0.01770  -0.00108
           Y           -0.01769   0.99981   0.00790
           Z            0.00122  -0.00788   0.99997
 This molecule is an asymmetric top.
 Rotational symmetry number  1.
 Warning -- assumption of classical behavior for rotation
           may cause significant error
 Rotational temperatures (Kelvin)      0.08266     0.02410     0.01972
 Rotational constants (GHZ):           1.72245     0.50207     0.41098
 Zero-point vibrational energy     697618.1 (Joules/Mol)
                                  166.73473 (Kcal/Mol)
 Warning -- explicit consideration of  23 degrees of freedom as
           vibrations may cause significant error
 Vibrational temperatures:     62.50    81.37    83.98   142.11   183.76
          (Kelvin)            199.78   213.09   309.43   312.01   325.29
                              348.31   357.16   407.02   419.41   453.70
                              511.87   574.33   606.29   608.15   661.89
                              721.89   795.41   840.55  1083.07  1190.35
                             1241.43  1266.02  1331.09  1342.44  1348.96
                             1363.75  1385.41  1391.14  1445.85  1467.20
                             1505.43  1536.24  1617.21  1640.50  1666.85
                             1706.99  1718.28  1777.57  1830.11  1880.83
                             1898.99  1916.91  1940.64  1954.64  1962.30
                             1977.31  1997.53  2008.70  2016.49  2022.38
                             2046.90  2102.02  2125.81  2148.02  2148.53
                             2153.38  2159.70  2165.75  2170.15  2197.54
                             4295.17  4315.53  4320.89  4340.25  4341.85
                             4346.12  4352.09  4371.27  4404.54  4428.62
                             4433.33  4436.52  4442.23  4448.41  4449.48
                             4456.01  4491.18  4637.73  5427.22

 Zero-point correction=                           0.265709 (Hartree/Particle)
 Thermal correction to Energy=                    0.280649
 Thermal correction to Enthalpy=                  0.281594
 Thermal correction to Gibbs Free Energy=         0.223478
 Sum of electronic and zero-point Energies=           -504.573039
 Sum of electronic and thermal Energies=              -504.558098
 Sum of electronic and thermal Enthalpies=            -504.557154
 Sum of electronic and thermal Free Energies=         -504.615270

                     E (Thermal)             CV                S
                      KCal/Mol        Cal/Mol-Kelvin    Cal/Mol-Kelvin
 Total                  176.110             54.316            122.314
 Electronic               0.000              0.000              1.377
 Translational            0.889              2.981             41.103
 Rotational               0.889              2.981             31.181
 Vibrational            174.333             48.354             48.652
 Vibration     1          0.595              1.980              5.096
 Vibration     2          0.596              1.975              4.574
 Vibration     3          0.596              1.974              4.512
 Vibration     4          0.604              1.950              3.478
 Vibration     5          0.611              1.925              2.980
 Vibration     6          0.614              1.914              2.820
 Vibration     7          0.617              1.905              2.696
 Vibration     8          0.645              1.818              2.000
 Vibration     9          0.646              1.815              1.985
 Vibration    10          0.650              1.801              1.910
 Vibration    11          0.658              1.776              1.787
 Vibration    12          0.662              1.766              1.743
 Vibration    13          0.682              1.705              1.516
 Vibration    14          0.687              1.690              1.465
 Vibration    15          0.703              1.644              1.334
 Vibration    16          0.731              1.563              1.141
 Vibration    17          0.765              1.472              0.966
 Vibration    18          0.784              1.424              0.887
 Vibration    19          0.785              1.421              0.883
 Vibration    20          0.818              1.339              0.766
 Vibration    21          0.857              1.246              0.654
 Vibration    22          0.908              1.133              0.538
 Vibration    23          0.941              1.065              0.478

 Optimization completed.
    -- Stationary point found.
 Normal termination of Gaussian 09 at Sun Feb  9 08:48:01 2014.

 -----------------------------------------------------------
 #P Geom=AllCheck Guess=TCheck SCRF=Check CCSD(T)/6-31+G(d')
 -----------------------------------------------------------

 Structure from the checkpoint file:  C9H18OOH_3_26_g.chk
 ---------------------
 optimization and freq
 ---------------------
 Charge =  0 Multiplicity = 2

 SCF Done:  E(UHF) =  -501.442249536     A.U. after   20 cycles
 E2 =    -0.1571092745D+01 EUMP2 =    -0.50301334228082D+03
 CCSD(T)
 CCSD(T)= -0.50318454460D+03
 DQ=-503.1285905\CCSD=-503.130898\CCSD(T)=-503.1845446\S2=0.762989\S2-1
 Normal termination of Gaussian 09 at Sun Feb  9 17:19:43 2014.

 -----------------------------------------------------
 #P Geom=AllCheck Guess=TCheck SCRF=Check MP4SDQ/CBSB4
 -----------------------------------------------------

 Structure from the checkpoint file:  C9H18OOH_3_26_g.chk
 ---------------------
 optimization and freq
 ---------------------
 Charge =  0 Multiplicity = 2

 SCF Done:  E(UHF) =  -501.474251419     A.U. after   13 cycles
 E2 =    -0.1696421519D+01 EUMP2 =    -0.50317067293834D+03
 Normal termination of Gaussian 09 at Sun Feb  9 17:41:24 2014.

 ----------------------------------------------------------------------
 #P Geom=AllCheck Guess=TCheck SCRF=Check MP2/CBSB3 CBSExtrap=(NMin=10,
 MinPop)
 ----------------------------------------------------------------------

 Structure from the checkpoint file:  C9H18OOH_3_26_g.chk
 ---------------------
 optimization and freq
 ---------------------
 Charge =  0 Multiplicity = 2

                         Standard orientation:
 ---------------------------------------------------------------------
 Center     Atomic      Atomic             Coordinates (Angstroms)
 Number     Number       Type             X           Y           Z
 ---------------------------------------------------------------------
      1          6           0        3.512301    0.142334   -0.289501
      2          1           0        3.545647   -0.691686   -0.995140
      3          1           0        3.752393   -0.231368    0.710336
      4          1           0        4.299165    0.843722   -0.580688
      5          6           0        2.144537    0.839225   -0.315366
      6          1           0        1.954113    1.151876   -1.350510
      7          6           0       -0.384679    0.398505   -0.395478
      8          1           0       -0.409342    0.269658   -1.484835
      9          1           0       -0.471540    1.473067   -0.211707
     10          6           0       -1.568263   -0.339433    0.237592
     11          1           0       -1.566266   -0.171719    1.323064
     12          1           0       -1.432612   -1.414129    0.088275
     13          6           0       -2.938385    0.084342   -0.326487
     14          1           0       -2.912589   -0.051448   -1.416679
     15          6           0       -4.054459   -0.845237    0.214482
     16          1           0       -4.122472   -0.774574    1.304146
     17          1           0       -5.028692   -0.576083   -0.201065
     18          1           0       -3.846276   -1.887520   -0.047200
     19          6           0        2.174784    2.095093    0.570131
     20          1           0        2.388703    1.829054    1.610847
     21          1           0        2.956197    2.783509    0.237237
     22          1           0        1.228198    2.640008    0.552407
     23          6           0       -3.254381    1.516579   -0.037543
     24          1           0       -3.916453    2.085059   -0.680266
     25          1           0       -2.987137    1.953591    0.919554
     26          6           0        0.979851   -0.090079    0.100990
     27          1           0        0.969792   -0.202252    1.190625
     28          8           0        1.106662   -1.418363   -0.451084
     29          8           0        1.803474   -2.262738    0.504064
     30          1           0        2.650249   -2.387938    0.054840
 ---------------------------------------------------------------------

 SCF Done:  E(UHF) =  -501.611365397     A.U. after   13 cycles
 E2 =    -0.1999609329D+01 EUMP2 =    -0.50361097472617D+03
 E2(CBS)=      -2.193234 CBS-Int=       0.065589 OIii=      17.364361

 The electronic state is 2-A.
 Alpha  occ. eigenvalues --  -20.61716 -20.61368 -11.27955 -11.23248 -11.22556
 Alpha  occ. eigenvalues --  -11.22454 -11.21852 -11.21788 -11.21779 -11.21265
 Alpha  occ. eigenvalues --  -11.21038  -1.46266  -1.22531  -1.09698  -1.07894
 Alpha  occ. eigenvalues --   -1.01083  -0.93560  -0.92781  -0.90843  -0.82645
 Alpha  occ. eigenvalues --   -0.78019  -0.76157  -0.71514  -0.66885  -0.63780
 Alpha  occ. eigenvalues --   -0.63482  -0.61355  -0.60878  -0.58386  -0.56636
 Alpha  occ. eigenvalues --   -0.56123  -0.55280  -0.54454  -0.53682  -0.52605
 Alpha  occ. eigenvalues --   -0.51063  -0.49445  -0.48943  -0.48552  -0.47488
 Alpha  occ. eigenvalues --   -0.46917  -0.46349  -0.44892  -0.42105  -0.34766
 Alpha virt. eigenvalues --    0.03878   0.04569   0.05145   0.05285   0.06271
 Alpha virt. eigenvalues --    0.06540   0.06780   0.07445   0.08092   0.08472
 Alpha virt. eigenvalues --    0.08929   0.09212   0.09449   0.10186   0.11781

  Beta  occ. eigenvalues --  -20.61714 -20.61366 -11.27957 -11.23248 -11.22852
  Beta  occ. eigenvalues --  -11.21843 -11.21788 -11.21779 -11.21199 -11.20787
  Beta  occ. eigenvalues --  -11.20071  -1.46262  -1.22525  -1.08918  -1.07479
  Beta  occ. eigenvalues --   -1.00339  -0.93540  -0.90841  -0.87453  -0.82030
  Beta  occ. eigenvalues --   -0.77934  -0.74706  -0.71491  -0.66776  -0.63573
  Beta  occ. eigenvalues --   -0.63103  -0.61210  -0.60729  -0.57917  -0.56063
  Beta  occ. eigenvalues --   -0.55700  -0.55007  -0.53848  -0.53550  -0.52259
  Beta  occ. eigenvalues --   -0.50482  -0.49359  -0.48810  -0.48199  -0.47007
  Beta  occ. eigenvalues --   -0.46525  -0.45967  -0.44749  -0.41954
  Beta virt. eigenvalues --    0.03898   0.04565   0.05100   0.05189   0.06158
  Beta virt. eigenvalues --    0.06543   0.06792   0.07445   0.08093   0.08419
  Beta virt. eigenvalues --    0.08927   0.09132   0.09460   0.09688   0.11212

 Mulliken atomic charges:
              1
     1  C   -0.429807
     2  H    0.063506
     3  H    0.089798
     4  H    0.096629
     5  C    1.114537
     6  H    0.059865
     7  C   -0.263599
     8  H    0.119010
     9  H    0.034025
    10  C   -0.738799
    11  H    0.065750
    12  H    0.078622
    13  C    1.036029
    14  H    0.055638
    15  C   -0.433703
    16  H    0.060072
    17  H    0.104264
    18  H    0.057307
    19  C   -0.688189
    20  H    0.067139
    21  H    0.086791
    22  H    0.084786
    23  C   -0.667010
    24  H    0.086203
    25  H    0.109332
    26  C   -0.305944
    27  H    0.155692
    28  O   -0.112577
    29  O   -0.247106
    30  H    0.261739
 Sum of Mulliken atomic charges =   0.00000

 Dipole moment (field-independent basis, Debye):
    X=              1.0751    Y=              1.4819    Z=             -0.2334  Tot=              1.8456
 Quadrupole moment (field-independent basis, Debye-Ang):
   XX=            -65.8937   YY=            -74.8945   ZZ=            -71.9904
   XY=             -1.0481   XZ=             -0.1444   YZ=              1.1337

 Normal termination of Gaussian 09 at Sun Feb  9 18:33:28 2014.
