 Gaussian 09, Revision C.01,
 Gaussian 09:  EM64L-G09RevC.01 23-Sep-2011

 --------------------------
 #p cbs-qb3 opt=calcfc freq
 --------------------------

 (Enter /usr/caen/gaussian-09revc/g09/l101.exe)
 -----------------------------------------
 C9H18O_12_26 using cbs-qb3 to cal. energy
 -----------------------------------------
 Charge =  0 Multiplicity = 1

 SCF Done:  E(RB3LYP) =  -429.113181828     A.U. after   13 cycles
 SCF Done:  E(RB3LYP) =  -429.113223135     A.U. after   10 cycles
 SCF Done:  E(RB3LYP) =  -429.113223128     A.U. after    6 cycles
 Optimization completed.
    -- Stationary point found.
 Normal termination of Gaussian 09 at Tue Mar 11 10:47:53 2014.

 ---------------------------------------------------------
 #P Geom=AllCheck Guess=TCheck SCRF=Check B3LYP/CBSB7 Freq
 ---------------------------------------------------------

 Structure from the checkpoint file:  C9H18O_12_26.chk
 -----------------------------------------
 C9H18O_12_26 using cbs-qb3 to cal. energy
 -----------------------------------------
 Charge =  0 Multiplicity = 1

 SCF Done:  E(RB3LYP) =  -429.113223128     A.U. after    1 cycles

  Exact polarizability: 124.034  -0.048 104.713   2.171  -0.635  88.222
 Approx polarizability: 140.040  -1.392 150.294   0.186   0.646 141.162

                     1                      2                      3
                     A                      A                      A
 Frequencies --    28.4477                56.8987                88.6653
 Red. masses --     2.8383                 3.1378                 2.9634
 Frc consts  --     0.0014                 0.0060                 0.0137
 IR Inten    --     0.7198                 1.2220                 0.0721

                     4                      5                      6
                     A                      A                      A
 Frequencies --   116.1545               128.8145               197.1068
 Red. masses --     1.8270                 2.3129                 1.0553
 Frc consts  --     0.0145                 0.0226                 0.0242
 IR Inten    --     0.1999                 0.9149                 0.2703

                     7                      8                      9
                     A                      A                      A
 Frequencies --   216.8500               229.9957               244.9772
 Red. masses --     1.7213                 1.3431                 2.8369
 Frc consts  --     0.0477                 0.0419                 0.1003
 IR Inten    --     0.2825                 0.0364                 0.0697

                    10                     11                     12
                     A                      A                      A
 Frequencies --   255.9822               362.3928               365.4904
 Red. masses --     1.2482                 2.5003                 2.6481
 Frc consts  --     0.0482                 0.1935                 0.2084
 IR Inten    --     0.1266                 7.6590                 1.2876

                    13                     14                     15
                     A                      A                      A
 Frequencies --   386.9283               406.3979               434.1824
 Red. masses --     2.2582                 2.3728                 2.1151
 Frc consts  --     0.1992                 0.2309                 0.2349
 IR Inten    --     0.8693                 5.5798                 0.4873

                    16                     17                     18
                     A                      A                      A
 Frequencies --   449.6176               529.9966               711.3288
 Red. masses --     2.5864                 2.9556                 4.3098
 Frc consts  --     0.3081                 0.4891                 1.2848
 IR Inten    --     2.8481                 0.3267                 5.1010

                    19                     20                     21
                     A                      A                      A
 Frequencies --   752.0923               794.7563               830.3447
 Red. masses --     1.1762                 2.6439                 2.5984
 Frc consts  --     0.3920                 0.9839                 1.0555
 IR Inten    --     0.5103                20.6011                 4.9936

                    22                     23                     24
                     A                      A                      A
 Frequencies --   850.9093               913.4221               927.9999
 Red. masses --     1.5568                 1.4128                 1.3802
 Frc consts  --     0.6641                 0.6945                 0.7003
 IR Inten    --     5.1885                 0.4630                 1.7040

                    25                     26                     27
                     A                      A                      A
 Frequencies --   934.1463               951.4583               963.7351
 Red. masses --     2.0156                 1.8179                 1.4533
 Frc consts  --     1.0363                 0.9696                 0.7953
 IR Inten    --    10.8402                 1.9356                 0.0649

                    28                     29                     30
                     A                      A                      A
 Frequencies --  1001.5681              1014.5227              1050.3461
 Red. masses --     2.2545                 1.4303                 2.4393
 Frc consts  --     1.3325                 0.8674                 1.5855
 IR Inten    --     6.9166                 0.3327                 0.3620

                    31                     32                     33
                     A                      A                      A
 Frequencies --  1059.4289              1076.1798              1130.7586
 Red. masses --     2.0594                 1.5915                 1.3083
 Frc consts  --     1.3619                 1.0860                 0.9856
 IR Inten    --     0.5481                 4.5914                 2.5661

                    34                     35                     36
                     A                      A                      A
 Frequencies --  1142.7198              1158.7683              1172.0358
 Red. masses --     2.0738                 1.4704                 1.8212
 Frc consts  --     1.5955                 1.1633                 1.4740
 IR Inten    --     1.4084                 4.4129                 3.5659

                    37                     38                     39
                     A                      A                      A
 Frequencies --  1191.5211              1224.3248              1231.7239
 Red. masses --     1.7714                 1.8517                 1.5525
 Frc consts  --     1.4818                 1.6354                 1.3877
 IR Inten    --     4.3503                10.8329                 1.7447

                    40                     41                     42
                     A                      A                      A
 Frequencies --  1283.8960              1312.3050              1338.9078
 Red. masses --     1.4197                 1.2522                 1.1035
 Frc consts  --     1.3788                 1.2705                 1.1656
 IR Inten    --     6.5162                 3.3514                 2.1378

                    43                     44                     45
                     A                      A                      A
 Frequencies --  1345.0409              1371.4602              1385.1186
 Red. masses --     1.3808                 1.3424                 1.9334
 Frc consts  --     1.4718                 1.4876                 2.1855
 IR Inten    --     7.6638                 3.4355                 3.5382

                    46                     47                     48
                     A                      A                      A
 Frequencies --  1392.5654              1400.9864              1412.8614
 Red. masses --     1.6610                 1.2863                 1.3264
 Frc consts  --     1.8978                 1.4875                 1.5600
 IR Inten    --     6.4112                 8.1933                 3.2573

                    49                     50                     51
                     A                      A                      A
 Frequencies --  1420.6657              1421.8484              1479.3465
 Red. masses --     1.4494                 1.4269                 1.0794
 Frc consts  --     1.7236                 1.6997                 1.3918
 IR Inten    --    13.1009                 8.1309                 0.1709

                    52                     53                     54
                     A                      A                      A
 Frequencies --  1482.2820              1488.1467              1492.1449
 Red. masses --     1.0676                 1.0527                 1.0465
 Frc consts  --     1.3821                 1.3736                 1.3729
 IR Inten    --     1.1003                 6.4978                 0.1707

                    55                     56                     57
                     A                      A                      A
 Frequencies --  1497.8485              1500.1938              1506.5476
 Red. masses --     1.0576                 1.0629                 1.0581
 Frc consts  --     1.3980                 1.4094                 1.4149
 IR Inten    --     2.5679                 3.9478                 4.3724

                    58                     59                     60
                     A                      A                      A
 Frequencies --  1510.5048              1515.0116              1535.7549
 Red. masses --     1.0787                 1.0733                 1.3469
 Frc consts  --     1.4501                 1.4514                 1.8716
 IR Inten    --     2.9345                16.6219                 4.5171

                    61                     62                     63
                     A                      A                      A
 Frequencies --  2985.3949              2993.8766              3001.1349
 Red. masses --     1.0709                 1.0713                 1.0598
 Frc consts  --     5.6232                 5.6574                 5.6242
 IR Inten    --     2.7174                18.3346                28.8576

                    64                     65                     66
                     A                      A                      A
 Frequencies --  3012.8951              3018.5150              3022.7078
 Red. masses --     1.0365                 1.0384                 1.0937
 Frc consts  --     5.5437                 5.5742                 5.8875
 IR Inten    --    28.0099                37.2763                18.2104

                    67                     68                     69
                     A                      A                      A
 Frequencies --  3026.2987              3028.9469              3030.1197
 Red. masses --     1.0467                 1.0640                 1.0890
 Frc consts  --     5.6482                 5.7512                 5.8910
 IR Inten    --     9.3247                50.8488                11.2913

                    70                     71                     72
                     A                      A                      A
 Frequencies --  3070.2754              3071.9169              3078.5551
 Red. masses --     1.1026                 1.1001                 1.0992
 Frc consts  --     6.1237                 6.1164                 6.1379
 IR Inten    --    16.5611                13.2159                84.1036

                    73                     74                     75
                     A                      A                      A
 Frequencies --  3081.4814              3084.1984              3084.7848
 Red. masses --     1.0561                 1.1016                 1.0993
 Frc consts  --     5.9087                 6.1738                 6.1635
 IR Inten    --    25.1282                40.5630                54.6810

                    76                     77                     78
                     A                      A                      A
 Frequencies --  3093.1214              3111.5492              3166.5249
 Red. masses --     1.0995                 1.1009                 1.1180
 Frc consts  --     6.1980                 6.2798                 6.6049
 IR Inten    --    48.1477                24.7374                32.5558

 - Thermochemistry -
 -------------------
 Temperature   298.150 Kelvin.  Pressure   1.00000 Atm.
 Atom     1 has atomic number  6 and mass  12.00000

 Molecular mass:   142.13577 amu.
 Principal axes and moments of inertia in atomic units:
                           1         2         3
     Eigenvalues --   579.239503745.633123981.92194
           X            0.99995   0.00668   0.00744
           Y           -0.00641   0.99934  -0.03567
           Z           -0.00768   0.03562   0.99934
 This molecule is an asymmetric top.
 Rotational symmetry number  1.
 Warning -- assumption of classical behavior for rotation
           may cause significant error
 Rotational temperatures (Kelvin)      0.14953     0.02312     0.02175
 Rotational constants (GHZ):           3.11571     0.48183     0.45323
 Zero-point vibrational energy     667747.9 (Joules/Mol)
                                  159.59557 (Kcal/Mol)
 Warning -- explicit consideration of  17 degrees of freedom as
           vibrations may cause significant error
 Vibrational temperatures:     40.93    81.86   127.57   167.12   185.34
          (Kelvin)            283.59   312.00   330.91   352.47   368.30
                              521.40   525.86   556.70   584.72   624.69
                              646.90   762.55  1023.44  1082.09  1143.48
                             1194.68  1224.27  1314.21  1335.18  1344.03
                             1368.93  1386.60  1441.03  1459.67  1511.21
                             1524.28  1548.38  1626.91  1644.12  1667.21
                             1686.30  1714.33  1761.53  1772.17  1847.24
                             1888.11  1926.39  1935.21  1973.22  1992.87
                             2003.59  2015.70  2032.79  2044.02  2045.72
                             2128.45  2132.67  2141.11  2146.86  2155.07
                             2158.44  2167.58  2173.28  2179.76  2209.61
                             4295.31  4307.52  4317.96  4334.88  4342.96
                             4349.00  4354.16  4357.97  4359.66  4417.44
                             4419.80  4429.35  4433.56  4437.47  4438.31
                             4450.31  4476.82  4555.92

 Zero-point correction=                           0.254332 (Hartree/Particle)
 Thermal correction to Energy=                    0.266737
 Thermal correction to Enthalpy=                  0.267681
 Thermal correction to Gibbs Free Energy=         0.215294
 Sum of electronic and zero-point Energies=           -428.858891
 Sum of electronic and thermal Energies=              -428.846486
 Sum of electronic and thermal Enthalpies=            -428.845542
 Sum of electronic and thermal Free Energies=         -428.897929

                     E (Thermal)             CV                S
                      KCal/Mol        Cal/Mol-Kelvin    Cal/Mol-Kelvin
 Total                  167.380             45.599            110.259
 Electronic               0.000              0.000              0.000
 Translational            0.889              2.981             40.766
 Rotational               0.889              2.981             30.536
 Vibrational            165.603             39.637             38.957
 Vibration     1          0.593              1.984              5.935
 Vibration     2          0.596              1.975              4.562
 Vibration     3          0.601              1.957              3.689
 Vibration     4          0.608              1.936              3.163
 Vibration     5          0.611              1.924              2.964
 Vibration     6          0.636              1.844              2.160
 Vibration     7          0.646              1.815              1.985
 Vibration     8          0.652              1.795              1.879
 Vibration     9          0.660              1.771              1.766
 Vibration    10          0.666              1.753              1.689
 Vibration    11          0.736              1.550              1.112
 Vibration    12          0.739              1.543              1.099
 Vibration    13          0.755              1.498              1.012
 Vibration    14          0.771              1.456              0.939
 Vibration    15          0.795              1.396              0.845
 Vibration    16          0.809              1.362              0.797
 Vibration    17          0.885              1.184              0.587

 Optimization completed.
    -- Stationary point found.
 Normal termination of Gaussian 09 at Tue Mar 11 10:53:13 2014.

 -----------------------------------------------------------
 #P Geom=AllCheck Guess=TCheck SCRF=Check CCSD(T)/6-31+G(d')
 -----------------------------------------------------------

 Structure from the checkpoint file:  C9H18O_12_26.chk
 -----------------------------------------
 C9H18O_12_26 using cbs-qb3 to cal. energy
 -----------------------------------------
 Charge =  0 Multiplicity = 1

 SCF Done:  E(RHF) =  -426.120964791     A.U. after   13 cycles
 E2 =    -0.1396659233D+01 EUMP2 =    -0.42751762402457D+03
 CCSD(T)
 CCSD(T)= -0.42766999281D+03
 P4SDQ=-427.6201909\CCSD=-427.6209646\CCSD(T)=-427.6699928\RMSD=4.689e-
 Normal termination of Gaussian 09 at Tue Mar 11 13:02:24 2014.

 -----------------------------------------------------
 #P Geom=AllCheck Guess=TCheck SCRF=Check MP4SDQ/CBSB4
 -----------------------------------------------------

 Structure from the checkpoint file:  C9H18O_12_26.chk
 -----------------------------------------
 C9H18O_12_26 using cbs-qb3 to cal. energy
 -----------------------------------------
 Charge =  0 Multiplicity = 1

 SCF Done:  E(RHF) =  -426.144423941     A.U. after   11 cycles
 E2 =    -0.1514741647D+01 EUMP2 =    -0.42765916558880D+03
 Normal termination of Gaussian 09 at Tue Mar 11 13:09:07 2014.

 ----------------------------------------------------------------------
 #P Geom=AllCheck Guess=TCheck SCRF=Check MP2/CBSB3 CBSExtrap=(NMin=10,
 MinPop)
 ----------------------------------------------------------------------

 Structure from the checkpoint file:  C9H18O_12_26.chk
 -----------------------------------------
 C9H18O_12_26 using cbs-qb3 to cal. energy
 -----------------------------------------
 Charge =  0 Multiplicity = 1

                         Standard orientation:
 ---------------------------------------------------------------------
 Center     Atomic      Atomic             Coordinates (Angstroms)
 Number     Number       Type             X           Y           Z
 ---------------------------------------------------------------------
      1          6           0       -3.582702   -1.007681   -0.398017
      2          1           0       -3.511381   -1.938200    0.173282
      3          1           0       -3.613650   -1.265293   -1.461102
      4          1           0       -4.519173   -0.515489   -0.130183
      5          6           0       -1.040413   -0.740731   -0.355365
      6          1           0       -0.997786   -1.667728    0.231613
      7          1           0       -1.003193   -1.048618   -1.407887
      8          6           0        0.181542    0.119674   -0.018157
      9          1           0        0.054287    0.529255    0.989337
     10          1           0        0.228086    0.971752   -0.703565
     11          6           0        1.492868   -0.672740   -0.089085
     12          1           0        1.629748   -1.071335   -1.104104
     13          1           0        1.407220   -1.545920    0.569652
     14          6           0        2.755852    0.114030    0.310065
     15          1           0        2.573610    0.548551    1.302499
     16          6           0        3.962282   -0.828265    0.426085
     17          1           0        4.185068   -1.298119   -0.538337
     18          1           0        4.858340   -0.288378    0.745913
     19          1           0        3.776470   -1.627057    1.150050
     20          6           0       -2.599901    1.346213   -0.077754
     21          1           0       -3.582669    1.750139   -0.312655
     22          1           0       -1.768736    2.019672   -0.266628
     23          6           0        3.064707    1.264505   -0.659037
     24          1           0        3.968790    1.799672   -0.354393
     25          1           0        3.231448    0.883113   -1.672847
     26          1           0        2.252549    1.993880   -0.705257
     27          6           0       -2.401368   -0.111709   -0.091476
     28          8           0       -2.520777    0.608791    1.151382
 ---------------------------------------------------------------------

 SCF Done:  E(RHF) =  -426.256896162     A.U. after   12 cycles
 E2 =    -0.1773004053D+01 EUMP2 =    -0.42802990021490D+03
 E2(CBS)=      -1.942569 CBS-Int=       0.058896 OIii=      15.548511

 The electronic state is 1-A.
 Alpha  occ. eigenvalues --  -20.55892 -11.28887 -11.27467 -11.22479 -11.22315
 Alpha  occ. eigenvalues --  -11.22031 -11.21521 -11.21443 -11.20839 -11.20786
 Alpha  occ. eigenvalues --   -1.40078  -1.09611  -1.05423  -1.00217  -0.92715
 Alpha  occ. eigenvalues --   -0.92593  -0.90367  -0.83061  -0.76464  -0.75975
 Alpha  occ. eigenvalues --   -0.67843  -0.64746  -0.63524  -0.61326  -0.59084
 Alpha  occ. eigenvalues --   -0.58552  -0.57454  -0.55535  -0.53653  -0.53313
 Alpha  occ. eigenvalues --   -0.51998  -0.51339  -0.50274  -0.49345  -0.47477
 Alpha  occ. eigenvalues --   -0.45597  -0.45496  -0.44952  -0.42705  -0.41978
 Alpha virt. eigenvalues --    0.03851   0.04597   0.05087   0.05591   0.06268
 Alpha virt. eigenvalues --    0.06389   0.06921   0.07858   0.08142   0.08320
 Alpha virt. eigenvalues --    0.08701   0.09554   0.10633   0.10851   0.11419

 Mulliken atomic charges:
              1
     1  C   -0.135499
     2  H    0.077453
     3  H    0.061025
     4  H    0.099001
     5  C   -0.268232
     6  H    0.075209
     7  H    0.067928
     8  C    0.092105
     9  H    0.095347
    10  H   -0.012571
    11  C   -0.785774
    12  H    0.080621
    13  H    0.042935
    14  C    0.947848
    15  H    0.035789
    16  C   -0.400099
    17  H    0.051947
    18  H    0.100768
    19  H    0.056073
    20  C   -0.326842
    21  H    0.101159
    22  H    0.105951
    23  C   -0.579739
    24  H    0.088119
    25  H    0.063666
    26  H    0.072149
    27  C    0.502133
    28  O   -0.308469
 Sum of Mulliken atomic charges =   0.00000

 Dipole moment (field-independent basis, Debye):
    X=              0.1561    Y=             -0.1844    Z=             -2.0579  Tot=              2.0720
 Quadrupole moment (field-independent basis, Debye-Ang):
   XX=            -65.7458   YY=            -63.9007   ZZ=            -68.7918
   XY=              0.6326   XZ=              6.1999   YZ=             -1.4951

 Normal termination of Gaussian 09 at Tue Mar 11 13:41:21 2014.
