 Gaussian 09, Revision C.01,
 Gaussian 09:  EM64L-G09RevC.01 23-Sep-2011

 --------------------------
 #p cbs-qb3 opt=calcfc freq
 --------------------------

 (Enter /usr/caen/gaussian-09revc/g09/l101.exe)
 ----------------------------------------
 C9H18O_12_6 using cbs-qb3 to cal. energy
 ----------------------------------------
 Charge =  0 Multiplicity = 1

 SCF Done:  E(RB3LYP) =  -429.113363404     A.U. after   13 cycles
 SCF Done:  E(RB3LYP) =  -429.113401899     A.U. after   10 cycles
 SCF Done:  E(RB3LYP) =  -429.113401947     A.U. after    6 cycles
 Optimization completed.
    -- Stationary point found.
 Normal termination of Gaussian 09 at Tue Mar  4 13:45:18 2014.

 ---------------------------------------------------------
 #P Geom=AllCheck Guess=TCheck SCRF=Check B3LYP/CBSB7 Freq
 ---------------------------------------------------------

 Structure from the checkpoint file:  C9H18O_12_6.chk
 ----------------------------------------
 C9H18O_12_6 using cbs-qb3 to cal. energy
 ----------------------------------------
 Charge =  0 Multiplicity = 1

 SCF Done:  E(RB3LYP) =  -429.113401947     A.U. after    1 cycles

  Exact polarizability: 124.095   0.497 101.836  -0.885   4.424  91.007
 Approx polarizability: 140.089  -0.988 147.363  -1.325   4.545 144.032

                     1                      2                      3
                     A                      A                      A
 Frequencies --    34.8104                58.7470                87.9801
 Red. masses --     2.8191                 3.2057                 2.8603
 Frc consts  --     0.0020                 0.0065                 0.0130
 IR Inten    --     0.6375                 0.8999                 0.0235

                     4                      5                      6
                     A                      A                      A
 Frequencies --   117.5499               133.0924               189.6836
 Red. masses --     1.9194                 2.2166                 1.0575
 Frc consts  --     0.0156                 0.0231                 0.0224
 IR Inten    --     0.4511                 1.0526                 0.2717

                     7                      8                      9
                     A                      A                      A
 Frequencies --   217.4452               224.7010               244.5557
 Red. masses --     2.3351                 1.1096                 2.8858
 Frc consts  --     0.0651                 0.0330                 0.1017
 IR Inten    --     0.3607                 0.0428                 0.0631

                    10                     11                     12
                     A                      A                      A
 Frequencies --   256.3263               360.9959               365.6575
 Red. masses --     1.2332                 2.5626                 2.6188
 Frc consts  --     0.0477                 0.1968                 0.2063
 IR Inten    --     0.0720                 5.7587                 2.2357

                    13                     14                     15
                     A                      A                      A
 Frequencies --   383.5765               405.9724               437.9453
 Red. masses --     2.3049                 2.3221                 2.1276
 Frc consts  --     0.1998                 0.2255                 0.2404
 IR Inten    --     1.1406                 5.4937                 0.8459

                    16                     17                     18
                     A                      A                      A
 Frequencies --   449.3336               529.4146               711.9100
 Red. masses --     2.5679                 2.9502                 4.6317
 Frc consts  --     0.3055                 0.4872                 1.3830
 IR Inten    --     3.0162                 0.5991                 4.4295

                    19                     20                     21
                     A                      A                      A
 Frequencies --   749.8682               803.9182               815.5112
 Red. masses --     1.1813                 2.3230                 2.5418
 Frc consts  --     0.3914                 0.8845                 0.9960
 IR Inten    --     0.9657                24.4495                 2.9311

                    22                     23                     24
                     A                      A                      A
 Frequencies --   858.0681               911.5888               926.6085
 Red. masses --     1.6250                 1.4485                 1.5295
 Frc consts  --     0.7049                 0.7092                 0.7737
 IR Inten    --     4.3012                 0.7572                 4.8051

                    25                     26                     27
                     A                      A                      A
 Frequencies --   931.2030               958.0065               964.5150
 Red. masses --     1.7378                 1.7994                 1.4867
 Frc consts  --     0.8879                 0.9730                 0.8149
 IR Inten    --     4.9930                 2.8945                 0.2703

                    28                     29                     30
                     A                      A                      A
 Frequencies --  1002.2596              1008.9643              1049.4474
 Red. masses --     2.3190                 1.3952                 2.4656
 Frc consts  --     1.3725                 0.8369                 1.5999
 IR Inten    --     7.4622                 0.5900                 0.6030

                    31                     32                     33
                     A                      A                      A
 Frequencies --  1062.5530              1075.2640              1131.1092
 Red. masses --     2.1578                 1.5013                 1.3070
 Frc consts  --     1.4353                 1.0227                 0.9852
 IR Inten    --     0.1637                 5.6573                 2.4245

                    34                     35                     36
                     A                      A                      A
 Frequencies --  1141.6427              1160.0516              1172.0213
 Red. masses --     2.0959                 1.4324                 1.9132
 Frc consts  --     1.6095                 1.1357                 1.5484
 IR Inten    --     0.6683                 2.2420                 3.6691

                    37                     38                     39
                     A                      A                      A
 Frequencies --  1191.1167              1222.4829              1232.3030
 Red. masses --     1.7704                 1.7041                 1.6581
 Frc consts  --     1.4799                 1.5005                 1.4835
 IR Inten    --     4.7595                 3.7174                11.6634

                    40                     41                     42
                     A                      A                      A
 Frequencies --  1283.5242              1312.0241              1334.7997
 Red. masses --     1.4471                 1.2472                 1.1300
 Frc consts  --     1.4046                 1.2650                 1.1862
 IR Inten    --     7.5110                 2.6434                 4.8390

                    43                     44                     45
                     A                      A                      A
 Frequencies --  1344.9314              1370.1789              1383.7504
 Red. masses --     1.3155                 1.3328                 1.9474
 Frc consts  --     1.4020                 1.4742                 2.1970
 IR Inten    --     4.0571                 3.2150                 5.0785

                    46                     47                     48
                     A                      A                      A
 Frequencies --  1392.7828              1401.2558              1412.6838
 Red. masses --     1.7028                 1.2775                 1.3708
 Frc consts  --     1.9462                 1.4779                 1.6118
 IR Inten    --     6.9076                 5.7605                 3.2955

                    49                     50                     51
                     A                      A                      A
 Frequencies --  1420.8496              1421.7349              1478.3007
 Red. masses --     1.3765                 1.4614                 1.0784
 Frc consts  --     1.6372                 1.7404                 1.3885
 IR Inten    --    16.7555                 5.3735                 0.3616

                    52                     53                     54
                     A                      A                      A
 Frequencies --  1482.7504              1487.8338              1492.0475
 Red. masses --     1.0685                 1.0524                 1.0441
 Frc consts  --     1.3840                 1.3726                 1.3695
 IR Inten    --     0.9368                 6.1284                 1.4012

                    55                     56                     57
                     A                      A                      A
 Frequencies --  1497.5996              1499.7574              1505.6383
 Red. masses --     1.0602                 1.0635                 1.0554
 Frc consts  --     1.4010                 1.4094                 1.4097
 IR Inten    --     0.5565                 5.0946                 4.8291

                    58                     59                     60
                     A                      A                      A
 Frequencies --  1511.0978              1514.9900              1535.6379
 Red. masses --     1.0761                 1.0822                 1.3415
 Frc consts  --     1.4477                 1.4634                 1.8639
 IR Inten    --     6.1455                13.2566                 4.0936

                    61                     62                     63
                     A                      A                      A
 Frequencies --  2983.3730              2992.1874              3000.4476
 Red. masses --     1.0788                 1.0626                 1.0602
 Frc consts  --     5.6572                 5.6051                 5.6235
 IR Inten    --     6.1391                16.9389                17.1120

                    64                     65                     66
                     A                      A                      A
 Frequencies --  3012.9836              3013.7941              3019.2163
 Red. masses --     1.0554                 1.0540                 1.0384
 Frc consts  --     5.6448                 5.6405                 5.5771
 IR Inten    --     7.9714                61.8784                27.1936

                    67                     68                     69
                     A                      A                      A
 Frequencies --  3025.0450              3026.9126              3031.7389
 Red. masses --     1.0935                 1.0404                 1.0921
 Frc consts  --     5.8959                 5.6163                 5.9141
 IR Inten    --    18.4850                35.6377                29.5228

                    70                     71                     72
                     A                      A                      A
 Frequencies --  3072.1551              3076.2617              3078.5797
 Red. masses --     1.1004                 1.0954                 1.0971
 Frc consts  --     6.1192                 6.1078                 6.1261
 IR Inten    --     4.2917                13.1008                67.1530

                    73                     74                     75
                     A                      A                      A
 Frequencies --  3081.5522              3083.4971              3084.7305
 Red. masses --     1.0598                 1.1013                 1.0994
 Frc consts  --     5.9292                 6.1693                 6.1636
 IR Inten    --    42.7984                55.0827                52.9443

                    76                     77                     78
                     A                      A                      A
 Frequencies --  3095.0146              3110.9572              3166.0206
 Red. masses --     1.0990                 1.1010                 1.1185
 Frc consts  --     6.2028                 6.2780                 6.6056
 IR Inten    --    33.8455                24.7177                32.5246

 - Thermochemistry -
 -------------------
 Temperature   298.150 Kelvin.  Pressure   1.00000 Atm.
 Atom     1 has atomic number  6 and mass  12.00000

 Molecular mass:   142.13577 amu.
 Principal axes and moments of inertia in atomic units:
                           1         2         3
     Eigenvalues --   578.844433680.393983990.79177
           X            0.99994   0.01056  -0.00400
           Y           -0.01044   0.99955   0.02805
           Z            0.00429  -0.02800   0.99960
 This molecule is an asymmetric top.
 Rotational symmetry number  1.
 Warning -- assumption of classical behavior for rotation
           may cause significant error
 Rotational temperatures (Kelvin)      0.14963     0.02353     0.02170
 Rotational constants (GHZ):           3.11783     0.49037     0.45223
 Zero-point vibrational energy     667616.9 (Joules/Mol)
                                  159.56428 (Kcal/Mol)
 Warning -- explicit consideration of  17 degrees of freedom as
           vibrations may cause significant error
 Vibrational temperatures:     50.08    84.52   126.58   169.13   191.49
          (Kelvin)            272.91   312.85   323.29   351.86   368.80
                              519.39   526.10   551.88   584.10   630.10
                              646.49   761.71  1024.28  1078.89  1156.66
                             1173.34  1234.57  1311.57  1333.18  1339.79
                             1378.36  1387.72  1442.03  1451.67  1509.92
                             1528.77  1547.06  1627.41  1642.57  1669.05
                             1686.28  1713.75  1758.88  1773.01  1846.70
                             1887.71  1920.48  1935.05  1971.38  1990.91
                             2003.90  2016.09  2032.53  2044.28  2045.56
                             2126.94  2133.34  2140.66  2146.72  2154.71
                             2157.81  2166.27  2174.13  2179.73  2209.44
                             4292.40  4305.08  4316.97  4335.01  4336.17
                             4343.97  4352.36  4355.05  4361.99  4420.14
                             4426.05  4429.38  4433.66  4436.46  4438.23
                             4453.03  4475.97  4555.19

 Zero-point correction=                           0.254282 (Hartree/Particle)
 Thermal correction to Energy=                    0.266683
 Thermal correction to Enthalpy=                  0.267627
 Thermal correction to Gibbs Free Energy=         0.215443
 Sum of electronic and zero-point Energies=           -428.859120
 Sum of electronic and thermal Energies=              -428.846719
 Sum of electronic and thermal Enthalpies=            -428.845775
 Sum of electronic and thermal Free Energies=         -428.897959

                     E (Thermal)             CV                S
                      KCal/Mol        Cal/Mol-Kelvin    Cal/Mol-Kelvin
 Total                  167.346             45.621            109.830
 Electronic               0.000              0.000              0.000
 Translational            0.889              2.981             40.766
 Rotational               0.889              2.981             30.520
 Vibrational            165.569             39.659             38.543
 Vibration     1          0.594              1.983              5.534
 Vibration     2          0.596              1.974              4.499
 Vibration     3          0.601              1.958              3.704
 Vibration     4          0.608              1.935              3.140
 Vibration     5          0.613              1.920              2.901
 Vibration     6          0.633              1.854              2.231
 Vibration     7          0.646              1.814              1.980
 Vibration     8          0.649              1.803              1.921
 Vibration     9          0.660              1.772              1.769
 Vibration    10          0.666              1.752              1.687
 Vibration    11          0.735              1.553              1.118
 Vibration    12          0.739              1.543              1.098
 Vibration    13          0.753              1.505              1.025
 Vibration    14          0.771              1.457              0.941
 Vibration    15          0.798              1.387              0.833
 Vibration    16          0.808              1.362              0.798
 Vibration    17          0.884              1.185              0.589

 Optimization completed.
    -- Stationary point found.
 Normal termination of Gaussian 09 at Tue Mar  4 13:49:33 2014.

 -----------------------------------------------------------
 #P Geom=AllCheck Guess=TCheck SCRF=Check CCSD(T)/6-31+G(d')
 -----------------------------------------------------------

 Structure from the checkpoint file:  C9H18O_12_6.chk
 ----------------------------------------
 C9H18O_12_6 using cbs-qb3 to cal. energy
 ----------------------------------------
 Charge =  0 Multiplicity = 1

 SCF Done:  E(RHF) =  -426.121048565     A.U. after   12 cycles
 E2 =    -0.1396688035D+01 EUMP2 =    -0.42751773659999D+03
 CCSD(T)
 CCSD(T)= -0.42767009753D+03
 9\MP4SDQ=-427.6202953\CCSD=-427.6210691\CCSD(T)=-427.6700975\RMSD=9.41
 Normal termination of Gaussian 09 at Tue Mar  4 16:24:28 2014.

 -----------------------------------------------------
 #P Geom=AllCheck Guess=TCheck SCRF=Check MP4SDQ/CBSB4
 -----------------------------------------------------

 Structure from the checkpoint file:  C9H18O_12_6.chk
 ----------------------------------------
 C9H18O_12_6 using cbs-qb3 to cal. energy
 ----------------------------------------
 Charge =  0 Multiplicity = 1

 SCF Done:  E(RHF) =  -426.144518264     A.U. after   11 cycles
 E2 =    -0.1514756392D+01 EUMP2 =    -0.42765927465594D+03
 Normal termination of Gaussian 09 at Tue Mar  4 16:29:44 2014.

 ----------------------------------------------------------------------
 #P Geom=AllCheck Guess=TCheck SCRF=Check MP2/CBSB3 CBSExtrap=(NMin=10,
 MinPop)
 ----------------------------------------------------------------------

 Structure from the checkpoint file:  C9H18O_12_6.chk
 ----------------------------------------
 C9H18O_12_6 using cbs-qb3 to cal. energy
 ----------------------------------------
 Charge =  0 Multiplicity = 1

                         Standard orientation:
 ---------------------------------------------------------------------
 Center     Atomic      Atomic             Coordinates (Angstroms)
 Number     Number       Type             X           Y           Z
 ---------------------------------------------------------------------
      1          6           0       -3.574527   -1.040901   -0.323248
      2          1           0       -3.662388   -1.870330    0.385225
      3          1           0       -3.451851   -1.463817   -1.324920
      4          1           0       -4.503294   -0.468137   -0.307617
      5          6           0       -2.394988   -0.156600    0.021669
      6          6           0       -1.040253   -0.847035   -0.049693
      7          1           0       -1.058838   -1.707847    0.630705
      8          1           0       -0.945323   -1.264628   -1.060748
      9          6           0        0.183897    0.025831    0.244170
     10          1           0        0.178980    0.329747    1.297722
     11          1           0        0.107385    0.940392   -0.349560
     12          6           0        1.502541   -0.699588   -0.052187
     13          1           0        1.538881   -0.968332   -1.116827
     14          1           0        1.515739   -1.647951    0.500181
     15          6           0        2.776560    0.089209    0.304724
     16          1           0        2.695602    0.390423    1.358494
     17          6           0        4.018442   -0.802851    0.168757
     18          1           0        4.146734   -1.137945   -0.866378
     19          1           0        4.926631   -0.265806    0.457501
     20          1           0        3.940954   -1.693572    0.799311
     21          6           0       -2.620433    1.036912    0.852133
     22          1           0       -3.622885    1.245438    1.220464
     23          1           0       -1.814782    1.455746    1.448328
     24          6           0        2.933600    1.362484   -0.539263
     25          1           0        3.846204    1.901369   -0.268120
     26          1           0        2.999527    1.114406   -1.604573
     27          1           0        2.094836    2.050290   -0.409589
     28          8           0       -2.455144    1.156973   -0.568995
 ---------------------------------------------------------------------

 SCF Done:  E(RHF) =  -426.257003592     A.U. after   12 cycles
 E2 =    -0.1773009150D+01 EUMP2 =    -0.42803001274166D+03
 E2(CBS)=      -1.942573 CBS-Int=       0.058895 OIii=      15.548392

 The electronic state is 1-A.
 Alpha  occ. eigenvalues --  -20.55902 -11.28886 -11.27463 -11.22485 -11.22311
 Alpha  occ. eigenvalues --  -11.22034 -11.21524 -11.21441 -11.20788 -11.20623
 Alpha  occ. eigenvalues --   -1.40077  -1.09599  -1.05410  -1.00209  -0.92661
 Alpha  occ. eigenvalues --   -0.92524  -0.90372  -0.83043  -0.76438  -0.75986
 Alpha  occ. eigenvalues --   -0.67922  -0.64599  -0.63267  -0.61521  -0.59341
 Alpha  occ. eigenvalues --   -0.58594  -0.57021  -0.55696  -0.53242  -0.53190
 Alpha  occ. eigenvalues --   -0.52573  -0.51212  -0.50066  -0.49028  -0.47900
 Alpha  occ. eigenvalues --   -0.45838  -0.45057  -0.44884  -0.42757  -0.41987
 Alpha virt. eigenvalues --    0.03895   0.04602   0.05065   0.05521   0.06290
 Alpha virt. eigenvalues --    0.06395   0.06921   0.07760   0.08215   0.08417
 Alpha virt. eigenvalues --    0.09018   0.09681   0.10157   0.10949   0.11276

 Mulliken atomic charges:
              1
     1  C   -0.166448
     2  H    0.061265
     3  H    0.075779
     4  H    0.099997
     5  C    0.506807
     6  C   -0.385521
     7  H    0.059908
     8  H    0.090779
     9  C    0.160489
    10  H    0.008870
    11  H    0.072556
    12  C   -0.835472
    13  H    0.070443
    14  H    0.051624
    15  C    1.005522
    16  H    0.032349
    17  C   -0.402378
    18  H    0.054810
    19  H    0.099771
    20  H    0.053493
    21  C   -0.266580
    22  H    0.098549
    23  H    0.113085
    24  C   -0.585660
    25  H    0.088130
    26  H    0.062485
    27  H    0.076599
    28  O   -0.301254
 Sum of Mulliken atomic charges =   0.00000

 Dipole moment (field-independent basis, Debye):
    X=              0.0245    Y=             -1.4041    Z=              1.7033  Tot=              2.2076
 Quadrupole moment (field-independent basis, Debye-Ang):
   XX=            -65.1278   YY=            -67.3654   ZZ=            -65.2715
   XY=              3.7796   XZ=             -4.1304   YZ=              3.2081

 Normal termination of Gaussian 09 at Tue Mar  4 16:47:56 2014.
