 Gaussian 09, Revision C.01,

 -------------------------------------------------
 #p B3LYP/6-311++G(d,p) guess=mix stable=(opt,xqc)
 -------------------------------------------------

 (Enter /usr/caen/gaussian-09revc/g09/l101.exe)
 ----------------------------------------
 C9H18O_3_26 using cbs-qb3 to cal. energy
 ----------------------------------------
 Charge =  0 Multiplicity = 1

 SCF Done:  E(RB3LYP) =  -429.163389401     A.U. after   14 cycles
 Normal termination of Gaussian 09 at Sun Feb  9 02:05:40 2014.
 Gaussian 09:  EM64L-G09RevC.01 23-Sep-2011

 ------------------------------------------------
 #p cbs-qb3 opt=calcfc freq geom=check guess=read
 ------------------------------------------------

 ---------------------
 optimization and freq
 ---------------------
 Structure from the checkpoint file:  C9H18O_3_26.chk
 Charge =  0 Multiplicity = 1

 SCF Done:  E(RB3LYP) =  -429.158848753     A.U. after    9 cycles
 SCF Done:  E(RB3LYP) =  -429.158886331     A.U. after   11 cycles
 SCF Done:  E(RB3LYP) =  -429.158886179     A.U. after    7 cycles
 Optimization completed.
    -- Stationary point found.
 Normal termination of Gaussian 09 at Sun Feb  9 02:11:01 2014.

 ---------------------------------------------------------
 #P Geom=AllCheck Guess=TCheck SCRF=Check B3LYP/CBSB7 Freq
 ---------------------------------------------------------

 Structure from the checkpoint file:  C9H18O_3_26.chk
 ---------------------
 optimization and freq
 ---------------------
 Charge =  0 Multiplicity = 1

 SCF Done:  E(RB3LYP) =  -429.158886179     A.U. after    1 cycles

  Exact polarizability: 126.108   1.140 101.057  -0.482  -1.300  91.478
 Approx polarizability: 143.695  -0.125 149.742   1.306  -8.359 141.428

                     1                      2                      3
                     A                      A                      A
 Frequencies --    21.6683                30.9555                69.1425
 Red. masses --     3.8364                 2.5371                 3.0558
 Frc consts  --     0.0011                 0.0014                 0.0086
 IR Inten    --     1.0228                 0.3285                 1.5987

                     4                      5                      6
                     A                      A                      A
 Frequencies --    99.4810               123.4482               203.5905
 Red. masses --     3.0999                 1.8785                 1.0970
 Frc consts  --     0.0181                 0.0169                 0.0268
 IR Inten    --     1.2414                 0.6287                 0.0271

                     7                      8                      9
                     A                      A                      A
 Frequencies --   216.8147               225.6507               225.8697
 Red. masses --     1.1921                 1.9062                 1.3928
 Frc consts  --     0.0330                 0.0572                 0.0419
 IR Inten    --     0.1228                 1.9764                 0.1157

                    10                     11                     12
                     A                      A                      A
 Frequencies --   242.1716               250.7543               273.4478
 Red. masses --     2.4006                 1.1535                 2.0682
 Frc consts  --     0.0830                 0.0427                 0.0911
 IR Inten    --     0.4415                 0.5165                 0.4339

                    13                     14                     15
                     A                      A                      A
 Frequencies --   311.3156               374.6690               413.2403
 Red. masses --     3.3547                 2.2991                 2.3244
 Frc consts  --     0.1916                 0.1902                 0.2339
 IR Inten    --     7.3546                 3.8144                 0.2827

                    16                     17                     18
                     A                      A                      A
 Frequencies --   422.3665               488.4496               573.6862
 Red. masses --     2.1274                 2.6913                 1.9616
 Frc consts  --     0.2236                 0.3783                 0.3804
 IR Inten    --     1.1648                 0.2671                 0.0179

                    19                     20                     21
                     A                      A                      A
 Frequencies --   649.0579               767.6627               795.3214
 Red. masses --     3.0376                 2.1620                 1.9592
 Frc consts  --     0.7540                 0.7507                 0.7301
 IR Inten    --     4.3326                 3.3376                 3.3842

                    22                     23                     24
                     A                      A                      A
 Frequencies --   847.3107               886.0175               928.0151
 Red. masses --     2.6735                 2.7730                 1.1971
 Frc consts  --     1.1309                 1.2826                 0.6074
 IR Inten    --     1.2353                 0.8338                 1.4370

                    25                     26                     27
                     A                      A                      A
 Frequencies --   933.6393               941.1763               961.3252
 Red. masses --     1.3505                 1.4102                 1.4508
 Frc consts  --     0.6936                 0.7360                 0.7899
 IR Inten    --     3.2959                 4.4147                 2.5859

                    28                     29                     30
                     A                      A                      A
 Frequencies --   968.1784               974.6902              1027.2229
 Red. masses --     1.6192                 1.7240                 2.8042
 Frc consts  --     0.8942                 0.9650                 1.7434
 IR Inten    --     3.6158                 0.4385                37.1929

                    31                     32                     33
                     A                      A                      A
 Frequencies --  1072.1517              1081.1844              1120.2372
 Red. masses --     2.2385                 1.5226                 1.7419
 Frc consts  --     1.5161                 1.0487                 1.2880
 IR Inten    --    28.9873                 3.0957                28.0908

                    34                     35                     36
                     A                      A                      A
 Frequencies --  1143.1388              1153.3793              1191.5378
 Red. masses --     2.2198                 2.1262                 1.7645
 Frc consts  --     1.7091                 1.6665                 1.4760
 IR Inten    --     2.5307                 4.3045                 5.0085

                    37                     38                     39
                     A                      A                      A
 Frequencies --  1197.3440              1227.2664              1289.4763
 Red. masses --     1.8628                 1.5364                 1.3211
 Frc consts  --     1.5734                 1.3634                 1.2942
 IR Inten    --     6.5013                 3.5376                15.8070

                    40                     41                     42
                     A                      A                      A
 Frequencies --  1315.9717              1331.6188              1352.3007
 Red. masses --     1.1838                 1.3260                 1.3872
 Frc consts  --     1.2079                 1.3854                 1.4946
 IR Inten    --     3.1296                 2.6407                 8.4300

                    43                     44                     45
                     A                      A                      A
 Frequencies --  1368.4668              1375.4443              1397.8490
 Red. masses --     1.3682                 1.5083                 1.5263
 Frc consts  --     1.5097                 1.6812                 1.7572
 IR Inten    --     5.6330                21.0880                10.3084

                    46                     47                     48
                     A                      A                      A
 Frequencies --  1399.2138              1401.9018              1418.4832
 Red. masses --     1.2837                 1.2755                 1.2223
 Frc consts  --     1.4808                 1.4769                 1.4491
 IR Inten    --     4.4243                11.1344                15.1964

                    49                     50                     51
                     A                      A                      A
 Frequencies --  1421.8687              1452.4648              1486.7870
 Red. masses --     1.2410                 1.1002                 1.0632
 Frc consts  --     1.4782                 1.3675                 1.3848
 IR Inten    --     7.9789                 7.4930                 1.7310

                    52                     53                     54
                     A                      A                      A
 Frequencies --  1488.2641              1491.9099              1492.6586
 Red. masses --     1.0412                 1.0471                 1.0475
 Frc consts  --     1.3587                 1.3732                 1.3750
 IR Inten    --     2.2125                 2.1363                 1.1450

                    55                     56                     57
                     A                      A                      A
 Frequencies --  1499.0925              1503.6242              1506.7178
 Red. masses --     1.0691                 1.0470                 1.0553
 Frc consts  --     1.4155                 1.3946                 1.4115
 IR Inten    --     3.9257                12.7013                 4.3130

                    58                     59                     60
                     A                      A                      A
 Frequencies --  1512.5837              1513.7936              1787.3505
 Red. masses --     1.0490                 1.0600                10.4516
 Frc consts  --     1.4140                 1.4312                19.6722
 IR Inten    --    15.7898                15.7414               115.4615

                    61                     62                     63
                     A                      A                      A
 Frequencies --  2982.6921              2990.4679              3013.5169
 Red. masses --     1.0822                 1.0693                 1.0363
 Frc consts  --     5.6727                 5.6340                 5.5446
 IR Inten    --    14.3298                12.3310                28.1643

                    64                     65                     66
                     A                      A                      A
 Frequencies --  3016.7891              3019.0650              3024.3497
 Red. masses --     1.0458                 1.0777                 1.0626
 Frc consts  --     5.6077                 5.7873                 5.7263
 IR Inten    --     7.5171                23.2730                46.7162

                    67                     68                     69
                     A                      A                      A
 Frequencies --  3025.5957              3032.4268              3037.5593
 Red. masses --     1.0342                 1.0365                 1.0861
 Frc consts  --     5.5780                 5.6158                 5.9045
 IR Inten    --    23.1185                24.3296                10.4144

                    70                     71                     72
                     A                      A                      A
 Frequencies --  3069.8792              3073.1039              3080.5581
 Red. masses --     1.0979                 1.1003                 1.0996
 Frc consts  --     6.0963                 6.1221                 6.1482
 IR Inten    --     9.9260                 7.4152                84.0887

                    73                     74                     75
                     A                      A                      A
 Frequencies --  3085.2041              3087.3340              3088.8635
 Red. masses --     1.1016                 1.1009                 1.1020
 Frc consts  --     6.1777                 6.1825                 6.1948
 IR Inten    --    32.0338                71.8217                19.1373

                    76                     77                     78
                     A                      A                      A
 Frequencies --  3091.9908              3098.9140              3113.0413
 Red. masses --     1.1019                 1.1029                 1.1011
 Frc consts  --     6.2071                 6.2405                 6.2868
 IR Inten    --    40.6644                17.8761                24.4988

 - Thermochemistry -
 -------------------
 Temperature   298.150 Kelvin.  Pressure   1.00000 Atm.
 Atom     1 has atomic number  6 and mass  12.00000

 Molecular mass:   142.13577 amu.
 Principal axes and moments of inertia in atomic units:
                           1         2         3
     Eigenvalues --   630.737193517.595263808.47642
           X            0.99998   0.00611  -0.00332
           Y           -0.00599   0.99935   0.03546
           Z            0.00353  -0.03544   0.99937
 This molecule is an asymmetric top.
 Rotational symmetry number  1.
 Warning -- assumption of classical behavior for rotation
           may cause significant error
 Rotational temperatures (Kelvin)      0.13732     0.02462     0.02274
 Rotational constants (GHZ):           2.86132     0.51306     0.47387
 Zero-point vibrational energy     664954.9 (Joules/Mol)
                                  158.92803 (Kcal/Mol)
 Warning -- explicit consideration of  18 degrees of freedom as
           vibrations may cause significant error
 Vibrational temperatures:     31.18    44.54    99.48   143.13   177.61
          (Kelvin)            292.92   311.95   324.66   324.98   348.43
                              360.78   393.43   447.91   539.06   594.56
                              607.69   702.77   825.41   933.85  1104.49
                             1144.29  1219.09  1274.78  1335.21  1343.30
                             1354.14  1383.13  1392.99  1402.36  1477.94
                             1542.59  1555.58  1611.77  1644.72  1659.45
                             1714.35  1722.71  1765.76  1855.27  1893.39
                             1915.90  1945.66  1968.92  1978.96  2011.19
                             2013.15  2017.02  2040.88  2045.75  2089.77
                             2139.15  2141.28  2146.52  2147.60  2156.86
                             2163.38  2167.83  2176.27  2178.01  2571.60
                             4291.42  4302.61  4335.77  4340.48  4343.76
                             4351.36  4353.15  4362.98  4370.36  4416.87
                             4421.51  4432.23  4438.91  4441.98  4444.18
                             4448.68  4458.64  4478.97

 Zero-point correction=                           0.253268 (Hartree/Particle)
 Thermal correction to Energy=                    0.266437
 Thermal correction to Enthalpy=                  0.267381
 Thermal correction to Gibbs Free Energy=         0.212606
 Sum of electronic and zero-point Energies=           -428.905618
 Sum of electronic and thermal Energies=              -428.892449
 Sum of electronic and thermal Enthalpies=            -428.891505
 Sum of electronic and thermal Free Energies=         -428.946280

                     E (Thermal)             CV                S
                      KCal/Mol        Cal/Mol-Kelvin    Cal/Mol-Kelvin
 Total                  167.192             47.083            115.285
 Electronic               0.000              0.000              0.000
 Translational            0.889              2.981             40.766
 Rotational               0.889              2.981             30.514
 Vibrational            165.414             41.121             44.005
 Vibration     1          0.593              1.985              6.475
 Vibration     2          0.594              1.984              5.767
 Vibration     3          0.598              1.969              4.178
 Vibration     4          0.604              1.949              3.464
 Vibration     5          0.610              1.929              3.046
 Vibration     6          0.639              1.835              2.100
 Vibration     7          0.646              1.815              1.986
 Vibration     8          0.650              1.802              1.913
 Vibration     9          0.650              1.802              1.912
 Vibration    10          0.658              1.776              1.787
 Vibration    11          0.663              1.761              1.725
 Vibration    12          0.676              1.722              1.574
 Vibration    13          0.700              1.652              1.355
 Vibration    14          0.746              1.524              1.061
 Vibration    15          0.777              1.441              0.915
 Vibration    16          0.785              1.422              0.884
 Vibration    17          0.844              1.276              0.688
 Vibration    18          0.930              1.088              0.497

 Optimization completed.
    -- Stationary point found.
 Normal termination of Gaussian 09 at Sun Feb  9 02:15:13 2014.

 -----------------------------------------------------------
 #P Geom=AllCheck Guess=TCheck SCRF=Check CCSD(T)/6-31+G(d')
 -----------------------------------------------------------

 Structure from the checkpoint file:  C9H18O_3_26.chk
 ---------------------
 optimization and freq
 ---------------------
 Charge =  0 Multiplicity = 1

 SCF Done:  E(RHF) =  -426.172435513     A.U. after   14 cycles
 E2 =    -0.1388925533D+01 EUMP2 =    -0.42756136104559D+03
 CCSD(T)
 CCSD(T)= -0.42771505999D+03
 656891\CCSD=-427.6660547\CCSD(T)=-427.71506\RMSD=5.821e-09\PG=C01 [X(C
 Normal termination of Gaussian 09 at Sun Feb  9 06:41:53 2014.

 -----------------------------------------------------
 #P Geom=AllCheck Guess=TCheck SCRF=Check MP4SDQ/CBSB4
 -----------------------------------------------------

 Structure from the checkpoint file:  C9H18O_3_26.chk
 ---------------------
 optimization and freq
 ---------------------
 Charge =  0 Multiplicity = 1

 SCF Done:  E(RHF) =  -426.195646633     A.U. after   11 cycles
 E2 =    -0.1506856450D+01 EUMP2 =    -0.42770250308231D+03
 Normal termination of Gaussian 09 at Sun Feb  9 06:52:03 2014.

 ----------------------------------------------------------------------
 #P Geom=AllCheck Guess=TCheck SCRF=Check MP2/CBSB3 CBSExtrap=(NMin=10,
 MinPop)
 ----------------------------------------------------------------------

 Structure from the checkpoint file:  C9H18O_3_26.chk
 ---------------------
 optimization and freq
 ---------------------
 Charge =  0 Multiplicity = 1

                         Standard orientation:
 ---------------------------------------------------------------------
 Center     Atomic      Atomic             Coordinates (Angstroms)
 Number     Number       Type             X           Y           Z
 ---------------------------------------------------------------------
      1          6           0        3.583421   -0.592776   -0.744076
      2          1           0        3.312381   -1.184352   -1.622729
      3          1           0        3.784041   -1.286225    0.074679
      4          1           0        4.501441   -0.045496   -0.974149
      5          6           0        2.461140    0.375150   -0.354211
      6          1           0        2.216590    1.017209   -1.208586
      7          6           0       -0.134175    0.218078   -0.390243
      8          1           0       -0.157960    0.144217   -1.487909
      9          1           0       -0.104634    1.294003   -0.181350
     10          6           0       -1.363375   -0.454131    0.220309
     11          1           0       -1.367832   -0.282049    1.303510
     12          1           0       -1.258000   -1.535558    0.095385
     13          6           0       -2.709286   -0.000011   -0.373517
     14          1           0       -2.663175   -0.155915   -1.460642
     15          6           0       -3.852029   -0.866766    0.173222
     16          1           0       -3.943131   -0.752058    1.258754
     17          1           0       -4.811075   -0.585975   -0.271712
     18          1           0       -3.681654   -1.926816   -0.035243
     19          6           0       -2.993890    1.488155   -0.123290
     20          1           0       -3.961614    1.777496   -0.543029
     21          1           0       -3.021193    1.702192    0.951048
     22          1           0       -2.236525    2.135263   -0.573437
     23          6           0        1.192304   -0.384594    0.051943
     24          8           0        1.252876   -1.403406    0.704340
     25          6           0        2.881113    1.281471    0.821307
     26          1           0        2.089316    1.982105    1.101435
     27          1           0        3.124027    0.675250    1.697734
     28          1           0        3.764650    1.866507    0.552854
 ---------------------------------------------------------------------

 SCF Done:  E(RHF) =  -426.306160112     A.U. after   12 cycles
 E2 =    -0.1763126045D+01 EUMP2 =    -0.42806928615738D+03
 E2(CBS)=      -1.931897 CBS-Int=       0.058902 OIii=      15.556218

 The electronic state is 1-A.
 Alpha  occ. eigenvalues --  -20.54003 -11.32214 -11.24057 -11.23422 -11.22720
 Alpha  occ. eigenvalues --  -11.22536 -11.21630 -11.21480 -11.21245 -11.20916
 Alpha  occ. eigenvalues --   -1.38389  -1.09854  -1.08138  -1.01860  -0.93711
 Alpha  occ. eigenvalues --   -0.92950  -0.90326  -0.82907  -0.76572  -0.72106
 Alpha  occ. eigenvalues --   -0.67032  -0.64351  -0.62499  -0.61354  -0.60476
 Alpha  occ. eigenvalues --   -0.58813  -0.56465  -0.55800  -0.54641  -0.53661
 Alpha  occ. eigenvalues --   -0.53069  -0.51545  -0.50516  -0.49402  -0.48495
 Alpha  occ. eigenvalues --   -0.47228  -0.46334  -0.45894  -0.45858  -0.39598
 Alpha virt. eigenvalues --    0.03574   0.04517   0.04952   0.05343   0.06313
 Alpha virt. eigenvalues --    0.06418   0.06749   0.07861   0.08217   0.08448
 Alpha virt. eigenvalues --    0.08728   0.09405   0.09809   0.10127   0.11334

 Mulliken atomic charges:
              1
     1  C   -0.425780
     2  H    0.058437
     3  H    0.101784
     4  H    0.093746
     5  C    0.905967
     6  H    0.051920
     7  C   -0.119095
     8  H    0.062335
     9  H    0.050213
    10  C   -0.480398
    11  H    0.091358
    12  H    0.087515
    13  C    0.969404
    14  H    0.033186
    15  C   -0.389619
    16  H    0.055507
    17  H    0.094340
    18  H    0.056946
    19  C   -0.602876
    20  H    0.086180
    21  H    0.066672
    22  H    0.061144
    23  C   -0.124572
    24  O   -0.469288
    25  C   -0.569438
    26  H    0.074810
    27  H    0.093600
    28  H    0.086001
 Sum of Mulliken atomic charges =   0.00000

 Dipole moment (field-independent basis, Debye):
    X=             -0.1606    Y=              2.5104    Z=             -1.6077  Tot=              2.9854
 Quadrupole moment (field-independent basis, Debye-Ang):
   XX=            -63.9207   YY=            -69.8187   ZZ=            -65.7804
   XY=              3.7963   XZ=             -1.5340   YZ=              2.6533

 Normal termination of Gaussian 09 at Sun Feb  9 07:11:57 2014.
