 Gaussian 09, Revision C.01,

 --------------------------------------------------
 #p UB3LYP/6-311++G(d,p) guess=mix stable=(opt,xqc)
 --------------------------------------------------

 (Enter /usr/caen/gaussian-09revc/g09/l101.exe)
 --------------------------------------------
 C9H18OOH_2_26_a using cbs-qb3 to cal. energy
 --------------------------------------------
 Charge =  0 Multiplicity = 2

 SCF Done:  E(UB3LYP) =  -504.850654203     A.U. after   19 cycles
 Normal termination of Gaussian 09 at Mon Feb 10 17:00:58 2014.
 Gaussian 09:  EM64L-G09RevC.01 23-Sep-2011

 ------------------------------------------------
 #p cbs-qb3 opt=calcfc freq geom=check guess=read
 ------------------------------------------------

 ---------------------
 optimization and freq
 ---------------------
 Structure from the checkpoint file:  C9H18OOH_2_26_a.chk
 Charge =  0 Multiplicity = 2

 SCF Done:  E(UB3LYP) =  -504.841895206     A.U. after   11 cycles
 SCF Done:  E(UB3LYP) =  -504.842063101     A.U. after   15 cycles
 SCF Done:  E(UB3LYP) =  -504.841906131     A.U. after   15 cycles
 SCF Done:  E(UB3LYP) =  -504.842082041     A.U. after   15 cycles
 SCF Done:  E(UB3LYP) =  -504.842084393     A.U. after   11 cycles
 SCF Done:  E(UB3LYP) =  -504.842084569     A.U. after    8 cycles
 SCF Done:  E(UB3LYP) =  -504.842084593     A.U. after    7 cycles
 Optimization completed.
    -- Stationary point found.
 Normal termination of Gaussian 09 at Mon Feb 10 17:28:04 2014.

 ---------------------------------------------------------
 #P Geom=AllCheck Guess=TCheck SCRF=Check B3LYP/CBSB7 Freq
 ---------------------------------------------------------

 Structure from the checkpoint file:  C9H18OOH_2_26_a.chk
 ---------------------
 optimization and freq
 ---------------------
 Charge =  0 Multiplicity = 2

 SCF Done:  E(UB3LYP) =  -504.842084593     A.U. after    1 cycles

  Exact polarizability: 129.034   0.988 111.672   2.833  -1.320  99.185
 Approx polarizability: 147.360   0.203 165.134   0.431   0.675 148.739

                     1                      2                      3
                     A                      A                      A
 Frequencies --    32.5967                48.3097                88.1845
 Red. masses --     2.7558                 3.6630                 3.1989
 Frc consts  --     0.0017                 0.0050                 0.0147
 IR Inten    --     0.2403                 0.3524                 0.7383

                     4                      5                      6
                     A                      A                      A
 Frequencies --    96.3252               103.8993               120.9378
 Red. masses --     2.8390                 1.2438                 1.4945
 Frc consts  --     0.0155                 0.0079                 0.0129
 IR Inten    --     0.7726                 0.9183                 1.1414

                     7                      8                      9
                     A                      A                      A
 Frequencies --   173.4378               205.6647               226.2084
 Red. masses --     3.2219                 2.5808                 1.0843
 Frc consts  --     0.0571                 0.0643                 0.0327
 IR Inten    --     4.9195                10.2857                45.2533

                    10                     11                     12
                     A                      A                      A
 Frequencies --   232.9667               238.3748               256.8930
 Red. masses --     1.2101                 2.3133                 1.1099
 Frc consts  --     0.0387                 0.0774                 0.0432
 IR Inten    --     3.3058                 0.4406                53.5363

                    13                     14                     15
                     A                      A                      A
 Frequencies --   260.5183               284.5641               324.3222
 Red. masses --     1.1392                 3.0872                 1.9527
 Frc consts  --     0.0456                 0.1473                 0.1210
 IR Inten    --    11.1171                 1.4923                14.2255

                    16                     17                     18
                     A                      A                      A
 Frequencies --   359.4453               385.3087               390.2180
 Red. masses --     2.7922                 2.2039                 2.2993
 Frc consts  --     0.2125                 0.1928                 0.2063
 IR Inten    --     1.3968                 1.0861                 2.9006

                    19                     20                     21
                     A                      A                      A
 Frequencies --   441.5083               448.0952               489.3200
 Red. masses --     2.2039                 1.9592                 2.4477
 Frc consts  --     0.2531                 0.2318                 0.3453
 IR Inten    --     0.2224                 7.7307                18.5160

                    22                     23                     24
                     A                      A                      A
 Frequencies --   531.5048               572.4689               746.3899
 Red. masses --     3.2908                 3.4461                 1.1602
 Frc consts  --     0.5477                 0.6654                 0.3808
 IR Inten    --     4.2281                16.6740                 3.6385

                    25                     26                     27
                     A                      A                      A
 Frequencies --   763.2951               816.4250               843.8608
 Red. masses --     4.0294                 2.2705                 1.7734
 Frc consts  --     1.3832                 0.8917                 0.7440
 IR Inten    --     3.8745                 4.9423                 0.7083

                    28                     29                     30
                     A                      A                      A
 Frequencies --   860.1349               915.6191               924.4898
 Red. masses --     1.8960                 7.5976                 1.9719
 Frc consts  --     0.8265                 3.7528                 0.9930
 IR Inten    --    12.6381                 5.7689                 1.9976

                    31                     32                     33
                     A                      A                      A
 Frequencies --   931.1367               942.6573               949.0317
 Red. masses --     1.2274                 1.6623                 1.8179
 Frc consts  --     0.6270                 0.8703                 0.9647
 IR Inten    --     1.3397                 0.7634                 0.9322

                    34                     35                     36
                     A                      A                      A
 Frequencies --   965.8884              1007.4430              1040.9932
 Red. masses --     1.4408                 1.4832                 3.5301
 Frc consts  --     0.7920                 0.8870                 2.2539
 IR Inten    --     0.0696                 0.3062                 1.4737

                    37                     38                     39
                     A                      A                      A
 Frequencies --  1059.1511              1093.9466              1134.8794
 Red. masses --     2.4254                 1.3095                 2.1848
 Frc consts  --     1.6031                 0.9233                 1.6579
 IR Inten    --     0.1083                 2.6746                 2.9339

                    40                     41                     42
                     A                      A                      A
 Frequencies --  1153.0061              1187.4935              1190.4265
 Red. masses --     2.5449                 2.3680                 1.8632
 Frc consts  --     1.9934                 1.9674                 1.5557
 IR Inten    --    23.7838                 9.2032                 8.3703

                    43                     44                     45
                     A                      A                      A
 Frequencies --  1211.7718              1252.7360              1283.7815
 Red. masses --     1.9047                 1.7386                 1.4367
 Frc consts  --     1.6478                 1.6075                 1.3950
 IR Inten    --     3.0809                 6.0841                 4.7554

                    46                     47                     48
                     A                      A                      A
 Frequencies --  1314.3198              1333.8232              1344.7278
 Red. masses --     1.3190                 1.1492                 1.2156
 Frc consts  --     1.3424                 1.2046                 1.2951
 IR Inten    --     4.9996                 1.4583                18.8063

                    49                     50                     51
                     A                      A                      A
 Frequencies --  1357.4920              1372.3446              1379.1956
 Red. masses --     1.1800                 1.3281                 1.4501
 Frc consts  --     1.2811                 1.4737                 1.6252
 IR Inten    --    36.0828                 1.8436                 1.9174

                    52                     53                     54
                     A                      A                      A
 Frequencies --  1392.1240              1398.5139              1404.5710
 Red. masses --     1.3277                 1.4248                 1.2670
 Frc consts  --     1.5160                 1.6419                 1.4727
 IR Inten    --     9.3978                 7.1652                 6.3824

                    55                     56                     57
                     A                      A                      A
 Frequencies --  1422.6450              1442.4719              1475.7954
 Red. masses --     1.2391                 1.2123                 1.0800
 Frc consts  --     1.4775                 1.4862                 1.3859
 IR Inten    --     6.4425                 5.5201                 1.3420

                    58                     59                     60
                     A                      A                      A
 Frequencies --  1481.4616              1492.6140              1493.4252
 Red. masses --     1.0713                 1.0484                 1.0669
 Frc consts  --     1.3853                 1.3762                 1.4019
 IR Inten    --     0.1691                 1.3161                 3.0226

                    61                     62                     63
                     A                      A                      A
 Frequencies --  1497.8584              1503.7310              1506.5956
 Red. masses --     1.0553                 1.0494                 1.0672
 Frc consts  --     1.3950                 1.3981                 1.4273
 IR Inten    --     2.3034                 2.0866                 5.4897

                    64                     65                     66
                     A                      A                      A
 Frequencies --  1508.1852              1514.5120              2984.1269
 Red. masses --     1.0772                 1.0523                 1.0674
 Frc consts  --     1.4436                 1.4221                 5.6001
 IR Inten    --     1.7032                16.3280                 7.3558

                    67                     68                     69
                     A                      A                      A
 Frequencies --  2994.2480              3012.2269              3017.8860
 Red. masses --     1.0751                 1.0364                 1.0389
 Frc consts  --     5.6789                 5.5408                 5.5750
 IR Inten    --    23.8499                28.7383                31.4376

                    70                     71                     72
                     A                      A                      A
 Frequencies --  3020.4197              3021.5267              3031.7814
 Red. masses --     1.0614                 1.0955                 1.0606
 Frc consts  --     5.7054                 5.8924                 5.7437
 IR Inten    --    18.7536                15.1935                30.9372

                    73                     74                     75
                     A                      A                      A
 Frequencies --  3036.4699              3057.2714              3070.5404
 Red. masses --     1.0362                 1.0985                 1.1002
 Frc consts  --     5.6289                 6.0495                 6.1114
 IR Inten    --    28.7819                 2.0922                 4.3102

                    76                     77                     78
                     A                      A                      A
 Frequencies --  3076.7467              3078.9049              3082.5841
 Red. masses --     1.1018                 1.1023                 1.1017
 Frc consts  --     6.1451                 6.1566                 6.1677
 IR Inten    --    20.6633                98.7878                57.1659

                    79                     80                     81
                     A                      A                      A
 Frequencies --  3093.9757              3103.7637              3115.2782
 Red. masses --     1.0994                 1.1024                 1.1020
 Frc consts  --     6.2005                 6.2571                 6.3014
 IR Inten    --    42.8551                26.3242                19.3034

                    82                     83                     84
                     A                      A                      A
 Frequencies --  3153.4687              3266.7587              3781.5300
 Red. masses --     1.0502                 1.1201                 1.0688
 Frc consts  --     6.1530                 7.0425                 9.0050
 IR Inten    --     4.6660                 4.2273                42.7509

 - Thermochemistry -
 -------------------
 Temperature   298.150 Kelvin.  Pressure   1.00000 Atm.
 Atom     1 has atomic number  6 and mass  12.00000

 Molecular mass:   159.13850 amu.
 Principal axes and moments of inertia in atomic units:
                           1         2         3
     Eigenvalues --   891.519474185.728654420.38730
           X            0.99994   0.00502   0.01000
           Y           -0.00436   0.99786  -0.06521
           Z           -0.01030   0.06516   0.99782
 This molecule is an asymmetric top.
 Rotational symmetry number  1.
 Warning -- assumption of classical behavior for rotation
           may cause significant error
 Rotational temperatures (Kelvin)      0.09715     0.02069     0.01959
 Rotational constants (GHZ):           2.02434     0.43117     0.40828
 Zero-point vibrational energy     695159.2 (Joules/Mol)
                                  166.14704 (Kcal/Mol)
 Warning -- explicit consideration of  23 degrees of freedom as
           vibrations may cause significant error
 Vibrational temperatures:     46.90    69.51   126.88   138.59   149.49
          (Kelvin)            174.00   249.54   295.91   325.46   335.19
                              342.97   369.61   374.83   409.42   466.63
                              517.16   554.37   561.44   635.23   644.71
                              704.02   764.72   823.65  1073.89  1098.21
                             1174.65  1214.13  1237.54  1317.37  1330.13
                             1339.70  1356.27  1365.44  1389.70  1449.48
                             1497.76  1523.88  1573.94  1632.84  1658.92
                             1708.54  1712.76  1743.47  1802.41  1847.07
                             1891.01  1919.07  1934.76  1953.13  1974.50
                             1984.35  2002.95  2012.15  2020.86  2046.87
                             2075.39  2123.34  2131.49  2147.54  2148.70
                             2155.08  2163.53  2167.65  2169.94  2179.04
                             4293.49  4308.05  4333.92  4342.06  4345.70
                             4347.30  4362.05  4368.80  4398.73  4417.82
                             4426.75  4429.85  4435.15  4451.54  4465.62
                             4482.18  4537.13  4700.13  5440.77

 Zero-point correction=                           0.264772 (Hartree/Particle)
 Thermal correction to Energy=                    0.279891
 Thermal correction to Enthalpy=                  0.280835
 Thermal correction to Gibbs Free Energy=         0.222248
 Sum of electronic and zero-point Energies=           -504.577312
 Sum of electronic and thermal Energies=              -504.562194
 Sum of electronic and thermal Enthalpies=            -504.561249
 Sum of electronic and thermal Free Energies=         -504.619836

                     E (Thermal)             CV                S
                      KCal/Mol        Cal/Mol-Kelvin    Cal/Mol-Kelvin
 Total                  175.634             55.066            123.306
 Electronic               0.000              0.000              1.377
 Translational            0.889              2.981             41.103
 Rotational               0.889              2.981             31.179
 Vibrational            173.857             49.104             49.647
 Vibration     1          0.594              1.983              5.665
 Vibration     2          0.595              1.978              4.885
 Vibration     3          0.601              1.957              3.700
 Vibration     4          0.603              1.952              3.527
 Vibration     5          0.605              1.946              3.380
 Vibration     6          0.609              1.932              3.085
 Vibration     7          0.627              1.875              2.398
 Vibration     8          0.640              1.832              2.082
 Vibration     9          0.650              1.801              1.909
 Vibration    10          0.654              1.790              1.856
 Vibration    11          0.656              1.782              1.815
 Vibration    12          0.666              1.751              1.683
 Vibration    13          0.669              1.745              1.658
 Vibration    14          0.683              1.702              1.506
 Vibration    15          0.709              1.627              1.288
 Vibration    16          0.734              1.556              1.125
 Vibration    17          0.754              1.502              1.018
 Vibration    18          0.758              1.491              0.999
 Vibration    19          0.801              1.380              0.822
 Vibration    20          0.807              1.365              0.802
 Vibration    21          0.845              1.274              0.685
 Vibration    22          0.886              1.180              0.584
 Vibration    23          0.929              1.091              0.500

 Optimization completed.
    -- Stationary point found.
 Normal termination of Gaussian 09 at Mon Feb 10 17:41:07 2014.

 -----------------------------------------------------------
 #P Geom=AllCheck Guess=TCheck SCRF=Check CCSD(T)/6-31+G(d')
 -----------------------------------------------------------

 Structure from the checkpoint file:  C9H18OOH_2_26_a.chk
 ---------------------
 optimization and freq
 ---------------------
 Charge =  0 Multiplicity = 2

 SCF Done:  E(UHF) =  -501.446328861     A.U. after   21 cycles
 E2 =    -0.1572684050D+01 EUMP2 =    -0.50301901291125D+03
 CCSD(T)
 CCSD(T)= -0.50318995360D+03
 38646\CCSD=-503.1360748\CCSD(T)=-503.1899536\S2=0.762911\S2-1=0.753536
 Normal termination of Gaussian 09 at Tue Feb 11 03:25:26 2014.

 -----------------------------------------------------
 #P Geom=AllCheck Guess=TCheck SCRF=Check MP4SDQ/CBSB4
 -----------------------------------------------------

 Structure from the checkpoint file:  C9H18OOH_2_26_a.chk
 ---------------------
 optimization and freq
 ---------------------
 Charge =  0 Multiplicity = 2

 SCF Done:  E(UHF) =  -501.478353116     A.U. after   18 cycles
 E2 =    -0.1697798165D+01 EUMP2 =    -0.50317615128045D+03
 Normal termination of Gaussian 09 at Tue Feb 11 03:58:41 2014.

 ----------------------------------------------------------------------
 #P Geom=AllCheck Guess=TCheck SCRF=Check MP2/CBSB3 CBSExtrap=(NMin=10,
 MinPop)
 ----------------------------------------------------------------------

 Structure from the checkpoint file:  C9H18OOH_2_26_a.chk
 ---------------------
 optimization and freq
 ---------------------
 Charge =  0 Multiplicity = 2

                         Standard orientation:
 ---------------------------------------------------------------------
 Center     Atomic      Atomic             Coordinates (Angstroms)
 Number     Number       Type             X           Y           Z
 ---------------------------------------------------------------------
      1          6           0        3.317790    0.080032    1.104438
      2          1           0        3.314364   -0.976086    1.379152
      3          1           0        3.231458    0.670726    2.019847
      4          1           0        4.269344    0.321885    0.625080
      5          6           0        0.798678    0.009193    0.815293
      6          1           0        0.867535   -1.036079    1.131809
      7          1           0        0.696873    0.612021    1.725054
      8          6           0       -0.432461    0.193527   -0.077406
      9          1           0       -0.287426   -0.373761   -1.002226
     10          1           0       -0.517539    1.246132   -0.364815
     11          6           0       -1.722493   -0.270088    0.610639
     12          1           0       -1.890588    0.324126    1.519986
     13          1           0       -1.585405   -1.305466    0.947060
     14          6           0       -2.990524   -0.208550   -0.262521
     15          1           0       -2.785322   -0.774115   -1.181686
     16          6           0       -4.168913   -0.885639    0.451273
     17          1           0       -4.412625   -0.363331    1.383158
     18          1           0       -5.066775   -0.883359   -0.173817
     19          1           0       -3.938648   -1.925045    0.703174
     20          6           0        2.183006    1.805200   -0.305157
     21          1           0        2.529565    2.584389    0.360619
     22          1           0        1.808938    2.067575   -1.285247
     23          6           0       -3.359120    1.226876   -0.664376
     24          1           0       -4.269720    1.241294   -1.270575
     25          1           0       -3.542544    1.842853    0.223494
     26          1           0       -2.569492    1.707227   -1.246858
     27          6           0        2.151238    0.385335    0.154575
     28          8           0        2.322087   -0.344667   -1.094764
     29          8           0        2.222264   -1.774344   -0.833772
     30          1           0        3.129998   -2.044213   -1.025466
 ---------------------------------------------------------------------

 SCF Done:  E(UHF) =  -501.615076482     A.U. after   18 cycles
 E2 =    -0.2000927957D+01 EUMP2 =    -0.50361600443886D+03
 E2(CBS)=      -2.194445 CBS-Int=       0.065543 OIii=      17.362711

 The electronic state is 2-A.
 Alpha  occ. eigenvalues --  -20.61850 -20.61701 -11.29490 -11.23502 -11.21936
 Alpha  occ. eigenvalues --  -11.21871 -11.21736 -11.20913 -11.20759 -11.20434
 Alpha  occ. eigenvalues --  -11.20418  -1.46366  -1.23033  -1.09212  -1.06429
 Alpha  occ. eigenvalues --   -1.01073  -0.94650  -0.92238  -0.91914  -0.82326
 Alpha  occ. eigenvalues --   -0.75987  -0.75644  -0.70941  -0.66369  -0.64338
 Alpha  occ. eigenvalues --   -0.63432  -0.61355  -0.59956  -0.58499  -0.57444
 Alpha  occ. eigenvalues --   -0.56000  -0.54587  -0.54300  -0.52904  -0.52476
 Alpha  occ. eigenvalues --   -0.51119  -0.49892  -0.49500  -0.47112  -0.46693
 Alpha  occ. eigenvalues --   -0.45608  -0.45137  -0.44470  -0.43018  -0.36261
 Alpha virt. eigenvalues --    0.03926   0.04642   0.05151   0.05487   0.06451
 Alpha virt. eigenvalues --    0.06678   0.06829   0.07386   0.07723   0.08393
 Alpha virt. eigenvalues --    0.08859   0.09287   0.09473   0.10364   0.11564

  Beta  occ. eigenvalues --  -20.61816 -20.61661 -11.29804 -11.21869 -11.21850
  Beta  occ. eigenvalues --  -11.21555 -11.21090 -11.20914 -11.20755 -11.20435
  Beta  occ. eigenvalues --  -11.20418  -1.46260  -1.22705  -1.09067  -1.05525
  Beta  occ. eigenvalues --   -1.00406  -0.92244  -0.92037  -0.88657  -0.81891
  Beta  occ. eigenvalues --   -0.75787  -0.74678  -0.70871  -0.65673  -0.63877
  Beta  occ. eigenvalues --   -0.63247  -0.60816  -0.59762  -0.58164  -0.57257
  Beta  occ. eigenvalues --   -0.55335  -0.54425  -0.54016  -0.52879  -0.52167
  Beta  occ. eigenvalues --   -0.50702  -0.49854  -0.49234  -0.46912  -0.46303
  Beta  occ. eigenvalues --   -0.45503  -0.45063  -0.44366  -0.42186
  Beta virt. eigenvalues --    0.03964   0.04591   0.05184   0.05484   0.06232
  Beta virt. eigenvalues --    0.06678   0.06775   0.07292   0.07664   0.08389
  Beta virt. eigenvalues --    0.08726   0.09229   0.09453   0.09816   0.10957

 Mulliken atomic charges:
              1
     1  C   -0.050937
     2  H    0.092602
     3  H    0.070174
     4  H    0.116829
     5  C   -0.114481
     6  H    0.084553
     7  H    0.091580
     8  C   -0.256896
     9  H    0.082003
    10  H    0.044000
    11  C   -0.731899
    12  H    0.068792
    13  H    0.043144
    14  C    0.975426
    15  H    0.038858
    16  C   -0.390361
    17  H    0.052788
    18  H    0.101841
    19  H    0.056610
    20  C   -0.751558
    21  H    0.092884
    22  H    0.130707
    23  C   -0.621355
    24  H    0.086018
    25  H    0.063281
    26  H    0.075659
    27  C    0.617782
    28  O   -0.100001
    29  O   -0.244848
    30  H    0.276806
 Sum of Mulliken atomic charges =   0.00000

 Dipole moment (field-independent basis, Debye):
    X=              1.2432    Y=              0.3744    Z=              1.2002  Tot=              1.7681
 Quadrupole moment (field-independent basis, Debye-Ang):
   XX=            -66.5838   YY=            -69.8871   ZZ=            -73.0923
   XY=             -2.2159   XZ=              2.4269   YZ=              0.8851

 Normal termination of Gaussian 09 at Tue Feb 11 05:23:32 2014.
