 Gaussian 09, Revision C.01,
 Gaussian 09:  EM64L-G09RevC.01 23-Sep-2011

 --------------------------
 #p cbs-qb3 opt=calcfc freq
 --------------------------

 (Enter /usr/caen/gaussian-09revc/g09/l101.exe)
 -----------------------------------------
 C9H18O_27_26 using cbs-qb3 to cal. energy
 -----------------------------------------
 Charge =  0 Multiplicity = 1

 SCF Done:  E(RB3LYP) =  -429.142503319     A.U. after   13 cycles
 Optimization completed.
    -- Stationary point found.
 Normal termination of Gaussian 09 at Thu Apr  3 22:51:11 2014.

 ---------------------------------------------------------
 #P Geom=AllCheck Guess=TCheck SCRF=Check B3LYP/CBSB7 Freq
 ---------------------------------------------------------

 Structure from the checkpoint file:  C9H18O_27_26.chk
 -----------------------------------------
 C9H18O_27_26 using cbs-qb3 to cal. energy
 -----------------------------------------
 Charge =  0 Multiplicity = 1

 SCF Done:  E(RB3LYP) =  -429.142503319     A.U. after    1 cycles

  Exact polarizability: 120.921  -1.419 101.898  -0.239  -0.867  92.938
 Approx polarizability: 148.012  -2.385 141.970   0.103   0.404 143.964

                     1                      2                      3
                     A                      A                      A
 Frequencies --    88.6647               131.7248               202.2716
 Red. masses --     3.0816                 2.2920                 1.5498
 Frc consts  --     0.0143                 0.0234                 0.0374
 IR Inten    --     0.6679                 0.0280                 1.1908

                     4                      5                      6
                     A                      A                      A
 Frequencies --   221.0226               223.8045               254.4640
 Red. masses --     1.0913                 1.2333                 1.8682
 Frc consts  --     0.0314                 0.0364                 0.0713
 IR Inten    --     0.0065                 0.4015                 0.1983

                     7                      8                      9
                     A                      A                      A
 Frequencies --   261.0631               290.5444               299.5483
 Red. masses --     1.2655                 2.4725                 3.0711
 Frc consts  --     0.0508                 0.1230                 0.1624
 IR Inten    --     0.1200                 1.2240                 0.1287

                    10                     11                     12
                     A                      A                      A
 Frequencies --   318.3469               357.2541               393.1989
 Red. masses --     2.4387                 2.3678                 2.1377
 Frc consts  --     0.1456                 0.1781                 0.1947
 IR Inten    --     0.7204                 3.6506                 0.9483

                    13                     14                     15
                     A                      A                      A
 Frequencies --   412.1924               438.2706               482.0456
 Red. masses --     2.2699                 2.2511                 2.4214
 Frc consts  --     0.2272                 0.2548                 0.3315
 IR Inten    --     0.0711                 0.6420                 2.7689

                    16                     17                     18
                     A                      A                      A
 Frequencies --   525.8273               573.8173               703.0078
 Red. masses --     2.2567                 3.1786                 3.0630
 Frc consts  --     0.3676                 0.6166                 0.8919
 IR Inten    --     1.4609                 4.1977                 2.4323

                    19                     20                     21
                     A                      A                      A
 Frequencies --   788.1609               840.0994               852.0384
 Red. masses --     2.4690                 1.6020                 2.0434
 Frc consts  --     0.9037                 0.6661                 0.8740
 IR Inten    --     4.5705                 3.4601                 7.7768

                    22                     23                     24
                     A                      A                      A
 Frequencies --   883.0916               913.6620               929.7287
 Red. masses --     2.4221                 1.6582                 1.6003
 Frc consts  --     1.1129                 0.8155                 0.8150
 IR Inten    --    10.5852                 0.7748                 0.3448

                    25                     26                     27
                     A                      A                      A
 Frequencies --   953.9656               964.9995               970.7544
 Red. masses --     1.5942                 1.7214                 1.6646
 Frc consts  --     0.8548                 0.9445                 0.9242
 IR Inten    --     2.1766                 1.5829                 2.2986

                    28                     29                     30
                     A                      A                      A
 Frequencies --   991.5524              1023.1088              1066.2881
 Red. masses --     1.6471                 1.3577                 3.1271
 Frc consts  --     0.9541                 0.8374                 2.0948
 IR Inten    --     1.9985                 1.1427                14.5846

                    31                     32                     33
                     A                      A                      A
 Frequencies --  1087.0617              1104.9754              1107.0651
 Red. masses --     2.5354                 2.6897                 1.5101
 Frc consts  --     1.7652                 1.9349                 1.0904
 IR Inten    --    55.4173                57.9002                21.2841

                    34                     35                     36
                     A                      A                      A
 Frequencies --  1155.2168              1183.4651              1193.4907
 Red. masses --     1.8449                 2.2019                 2.2531
 Frc consts  --     1.4506                 1.8170                 1.8909
 IR Inten    --    13.4847                32.9648                14.1102

                    37                     38                     39
                     A                      A                      A
 Frequencies --  1232.4838              1259.4823              1274.6267
 Red. masses --     2.1491                 1.3251                 1.6864
 Frc consts  --     1.9234                 1.2385                 1.6143
 IR Inten    --    15.5098                 6.3001                 5.4118

                    40                     41                     42
                     A                      A                      A
 Frequencies --  1292.3432              1322.3969              1330.0712
 Red. masses --     1.4191                 1.2701                 1.2706
 Frc consts  --     1.3964                 1.3086                 1.3243
 IR Inten    --    27.9077                 0.9916                 1.5808

                    43                     44                     45
                     A                      A                      A
 Frequencies --  1364.7852              1370.7519              1385.4335
 Red. masses --     1.3192                 1.3833                 1.3844
 Frc consts  --     1.4477                 1.5314                 1.5656
 IR Inten    --     1.7481                 2.0047                 2.7236

                    46                     47                     48
                     A                      A                      A
 Frequencies --  1390.8127              1398.0229              1406.1970
 Red. masses --     1.3954                 1.3027                 1.3465
 Frc consts  --     1.5904                 1.5001                 1.5687
 IR Inten    --     3.6103                15.7815                 2.2109

                    49                     50                     51
                     A                      A                      A
 Frequencies --  1415.8977              1421.4962              1476.0024
 Red. masses --     1.2543                 1.2647                 1.0576
 Frc consts  --     1.4815                 1.5057                 1.3575
 IR Inten    --     6.2076                16.8717                 0.4787

                    52                     53                     54
                     A                      A                      A
 Frequencies --  1484.5845              1488.6003              1489.8554
 Red. masses --     1.0821                 1.0517                 1.0832
 Frc consts  --     1.4052                 1.3731                 1.4166
 IR Inten    --     4.7318                 0.2505                 2.2389

                    55                     56                     57
                     A                      A                      A
 Frequencies --  1490.8143              1497.8958              1500.5008
 Red. masses --     1.0821                 1.0630                 1.0496
 Frc consts  --     1.4169                 1.4052                 1.3923
 IR Inten    --     3.2280                 2.9946                 6.1822

                    58                     59                     60
                     A                      A                      A
 Frequencies --  1503.8790              1508.1508              1512.1235
 Red. masses --     1.0600                 1.0714                 1.0611
 Frc consts  --     1.4124                 1.4358                 1.4295
 IR Inten    --     8.8641                 4.7275                10.2080

                    61                     62                     63
                     A                      A                      A
 Frequencies --  2986.2816              2991.6545              3009.3963
 Red. masses --     1.0669                 1.0651                 1.0721
 Frc consts  --     5.6055                 5.6163                 5.7208
 IR Inten    --    16.6048                16.4033                 4.8475

                    64                     65                     66
                     A                      A                      A
 Frequencies --  3012.8715              3016.9589              3021.3457
 Red. masses --     1.0617                 1.0462                 1.0656
 Frc consts  --     5.6780                 5.6105                 5.7314
 IR Inten    --    14.9392                58.5799                12.4888

                    67                     68                     69
                     A                      A                      A
 Frequencies --  3026.3070              3036.3750              3036.8084
 Red. masses --     1.0359                 1.0392                 1.0907
 Frc consts  --     5.5900                 5.6452                 5.9265
 IR Inten    --    33.7529                 6.1190                58.1335

                    70                     71                     72
                     A                      A                      A
 Frequencies --  3048.6676              3052.7835              3059.7158
 Red. masses --     1.0973                 1.0967                 1.1009
 Frc consts  --     6.0088                 6.0219                 6.0721
 IR Inten    --    71.0884                14.4897                46.8471

                    73                     74                     75
                     A                      A                      A
 Frequencies --  3075.5985              3086.7529              3088.3857
 Red. masses --     1.0991                 1.1017                 1.1010
 Frc consts  --     6.1258                 6.1848                 6.1872
 IR Inten    --    63.3939                35.1053                33.4633

                    76                     77                     78
                     A                      A                      A
 Frequencies --  3100.0227              3105.1547              3109.5296
 Red. masses --     1.1026                 1.1020                 1.1020
 Frc consts  --     6.2432                 6.2602                 6.2779
 IR Inten    --    19.3541                38.0530                37.9805

 - Thermochemistry -
 -------------------
 Temperature   298.150 Kelvin.  Pressure   1.00000 Atm.
 Atom     1 has atomic number  6 and mass  12.00000

 Molecular mass:   142.13577 amu.
 Principal axes and moments of inertia in atomic units:
                           1         2         3
     Eigenvalues --   818.596011930.308252268.27205
           X            0.99998  -0.00632   0.00042
           Y            0.00633   0.99945  -0.03259
           Z           -0.00022   0.03259   0.99947
 This molecule is an asymmetric top.
 Rotational symmetry number  1.
 Warning -- assumption of classical behavior for rotation
           may cause significant error
 Rotational temperatures (Kelvin)      0.10581     0.04487     0.03818
 Rotational constants (GHZ):           2.20468     0.93495     0.79565
 Zero-point vibrational energy     675098.2 (Joules/Mol)
                                  161.35235 (Kcal/Mol)
 Warning -- explicit consideration of  17 degrees of freedom as
           vibrations may cause significant error
 Vibrational temperatures:    127.57   189.52   291.02   318.00   322.00
          (Kelvin)            366.12   375.61   418.03   430.98   458.03
                              514.01   565.72   593.05   630.57   693.56
                              756.55   825.59  1011.47  1133.99  1208.71
                             1225.89  1270.57  1314.55  1337.67  1372.54
                             1388.42  1396.70  1426.62  1472.02  1534.15
                             1564.04  1589.81  1592.82  1662.10  1702.74
                             1717.16  1773.27  1812.11  1833.90  1859.39
                             1902.63  1913.67  1963.62  1972.20  1993.33
                             2001.07  2011.44  2023.20  2037.16  2045.21
                             2123.64  2135.98  2141.76  2143.57  2144.95
                             2155.14  2158.88  2163.74  2169.89  2175.61
                             4296.59  4304.32  4329.84  4334.84  4340.73
                             4347.04  4354.18  4368.66  4369.28  4386.35
                             4392.27  4402.24  4425.09  4441.14  4443.49
                             4460.24  4467.62  4473.91

 Zero-point correction=                           0.257131 (Hartree/Particle)
 Thermal correction to Energy=                    0.268091
 Thermal correction to Enthalpy=                  0.269035
 Thermal correction to Gibbs Free Energy=         0.222054
 Sum of electronic and zero-point Energies=           -428.885372
 Sum of electronic and thermal Energies=              -428.874412
 Sum of electronic and thermal Enthalpies=            -428.873468
 Sum of electronic and thermal Free Energies=         -428.920450

                     E (Thermal)             CV                S
                      KCal/Mol        Cal/Mol-Kelvin    Cal/Mol-Kelvin
 Total                  168.230             43.734             98.882
 Electronic               0.000              0.000              0.000
 Translational            0.889              2.981             40.766
 Rotational               0.889              2.981             29.662
 Vibrational            166.452             37.772             28.453
 Vibration     1          0.601              1.957              3.689
 Vibration     2          0.612              1.922              2.921
 Vibration     3          0.639              1.837              2.112
 Vibration     4          0.648              1.809              1.951
 Vibration     5          0.649              1.805              1.928
 Vibration     6          0.665              1.755              1.699
 Vibration     7          0.669              1.744              1.655
 Vibration     8          0.687              1.691              1.471
 Vibration     9          0.692              1.675              1.419
 Vibration    10          0.705              1.639              1.319
 Vibration    11          0.732              1.560              1.134
 Vibration    12          0.760              1.485              0.988
 Vibration    13          0.776              1.444              0.919
 Vibration    14          0.798              1.387              0.832
 Vibration    15          0.838              1.290              0.705
 Vibration    16          0.881              1.193              0.597
 Vibration    17          0.930              1.088              0.497

 Optimization completed.
    -- Stationary point found.
 Normal termination of Gaussian 09 at Thu Apr  3 22:57:18 2014.

 -----------------------------------------------------------
 #P Geom=AllCheck Guess=TCheck SCRF=Check CCSD(T)/6-31+G(d')
 -----------------------------------------------------------

 Structure from the checkpoint file:  C9H18O_27_26.chk
 -----------------------------------------
 C9H18O_27_26 using cbs-qb3 to cal. energy
 -----------------------------------------
 Charge =  0 Multiplicity = 1

 SCF Done:  E(RHF) =  -426.154657315     A.U. after   12 cycles
 E2 =    -0.1397086626D+01 EUMP2 =    -0.42755174394137D+03
 CCSD(T)
 CCSD(T)= -0.42770530594D+03
 4SDQ=-427.6550228\CCSD=-427.6559881\CCSD(T)=-427.7053059\RMSD=5.641e-0
 Normal termination of Gaussian 09 at Fri Apr  4 00:45:20 2014.

 -----------------------------------------------------
 #P Geom=AllCheck Guess=TCheck SCRF=Check MP4SDQ/CBSB4
 -----------------------------------------------------

 Structure from the checkpoint file:  C9H18O_27_26.chk
 -----------------------------------------
 C9H18O_27_26 using cbs-qb3 to cal. energy
 -----------------------------------------
 Charge =  0 Multiplicity = 1

 SCF Done:  E(RHF) =  -426.177424293     A.U. after   10 cycles
 E2 =    -0.1515629872D+01 EUMP2 =    -0.42769305416482D+03
 Normal termination of Gaussian 09 at Fri Apr  4 00:50:48 2014.

 ----------------------------------------------------------------------
 #P Geom=AllCheck Guess=TCheck SCRF=Check MP2/CBSB3 CBSExtrap=(NMin=10,
 MinPop)
 ----------------------------------------------------------------------

 Structure from the checkpoint file:  C9H18O_27_26.chk
 -----------------------------------------
 C9H18O_27_26 using cbs-qb3 to cal. energy
 -----------------------------------------
 Charge =  0 Multiplicity = 1

                         Standard orientation:
 ---------------------------------------------------------------------
 Center     Atomic      Atomic             Coordinates (Angstroms)
 Number     Number       Type             X           Y           Z
 ---------------------------------------------------------------------
      1          6           0        1.839190   -0.192636   -0.373621
      2          6           0        1.600297    1.206838    0.214830
      3          6           0        0.207795    1.815516   -0.019494
      4          6           0       -0.925472    1.087440    0.723920
      5          6           0        0.739465   -1.195817    0.000222
      6          1           0        0.234019    2.854650    0.325219
      7          1           0        1.783878    1.169361    1.298077
      8          1           0        2.356708    1.886306   -0.194819
      9          1           0        1.809496   -0.114468   -1.467738
     10          1           0        0.605442   -1.235007    1.089772
     11          1           0        1.040251   -2.197911   -0.321572
     12          1           0       -0.006512    1.856098   -1.092582
     13          6           0        3.216809   -0.728596    0.038968
     14          1           0        3.430314   -1.690633   -0.435951
     15          1           0        4.011216   -0.033055   -0.245231
     16          1           0        3.277793   -0.871026    1.123706
     17          6           0       -1.499899   -0.162803    0.011894
     18          8           0       -0.482846   -0.920792   -0.673077
     19          1           0       -0.567607    0.811475    1.723018
     20          1           0       -1.761079    1.775088    0.891237
     21          6           0       -2.223619   -1.065587    1.022088
     22          1           0       -2.671475   -1.920312    0.509795
     23          1           0       -1.532876   -1.444737    1.780164
     24          1           0       -3.015550   -0.516902    1.540530
     25          6           0       -2.460492    0.241073   -1.111083
     26          1           0       -3.352300    0.726628   -0.706440
     27          1           0       -1.976823    0.925432   -1.811348
     28          1           0       -2.766572   -0.647221   -1.667564
 ---------------------------------------------------------------------

 SCF Done:  E(RHF) =  -426.288027202     A.U. after   11 cycles
 E2 =    -0.1776292883D+01 EUMP2 =    -0.42806432008519D+03
 E2(CBS)=      -1.945099 CBS-Int=       0.058532 OIii=      15.560390

 The electronic state is 1-A.
 Alpha  occ. eigenvalues --  -20.53870 -11.28062 -11.26328 -11.21899 -11.21652
 Alpha  occ. eigenvalues --  -11.21588 -11.21440 -11.21129 -11.20818 -11.20420
 Alpha  occ. eigenvalues --   -1.35761  -1.08881  -1.08029  -1.00162  -0.93661
 Alpha  occ. eigenvalues --   -0.92145  -0.90569  -0.83288  -0.76545  -0.73966
 Alpha  occ. eigenvalues --   -0.66249  -0.65179  -0.62176  -0.60811  -0.59866
 Alpha  occ. eigenvalues --   -0.57410  -0.55822  -0.55110  -0.54617  -0.53508
 Alpha  occ. eigenvalues --   -0.51843  -0.51595  -0.50917  -0.49170  -0.47762
 Alpha  occ. eigenvalues --   -0.45734  -0.45017  -0.43681  -0.43234  -0.39755
 Alpha virt. eigenvalues --    0.04038   0.04916   0.05073   0.05389   0.06615
 Alpha virt. eigenvalues --    0.06928   0.07024   0.07341   0.07740   0.09170
 Alpha virt. eigenvalues --    0.09399   0.09744   0.10027   0.10176   0.11024

 Mulliken atomic charges:
              1
     1  C    0.703664
     2  C   -0.521662
     3  C    0.157149
     4  C   -0.277855
     5  C   -0.366589
     6  H    0.070870
     7  H    0.087889
     8  H    0.061393
     9  H    0.069718
    10  H    0.071186
    11  H    0.097392
    12  H    0.047355
    13  C   -0.461759
    14  H    0.067598
    15  H    0.070220
    16  H    0.059771
    17  C    0.484975
    18  O   -0.214030
    19  H    0.078938
    20  H    0.088946
    21  C   -0.403863
    22  H    0.097988
    23  H    0.056749
    24  H    0.070288
    25  C   -0.413766
    26  H    0.059671
    27  H    0.067790
    28  H    0.089975
 Sum of Mulliken atomic charges =   0.00000

 Dipole moment (field-independent basis, Debye):
    X=              0.2196    Y=              0.6737    Z=              1.1057  Tot=              1.3133
 Quadrupole moment (field-independent basis, Debye-Ang):
   XX=            -64.1607   YY=            -65.7309   ZZ=            -66.4930
   XY=             -1.2365   XZ=             -1.1223   YZ=             -1.2017

 Normal termination of Gaussian 09 at Fri Apr  4 01:22:00 2014.
