 Gaussian 09, Revision C.01,
 Gaussian 09:  EM64L-G09RevC.01 23-Sep-2011

 --------------------------
 #p cbs-qb3 opt=calcfc freq
 --------------------------

 (Enter /usr/caen/gaussian-09revc/g09/l101.exe)
 -----------------------------------------
 C9H18O_23_26 using cbs-qb3 to cal. energy
 -----------------------------------------
 Charge =  0 Multiplicity = 1

 SCF Done:  E(RB3LYP) =  -429.120460318     A.U. after   13 cycles
 SCF Done:  E(RB3LYP) =  -429.120498708     A.U. after   10 cycles
 SCF Done:  E(RB3LYP) =  -429.120498620     A.U. after    7 cycles
 Optimization completed.
    -- Stationary point found.
 Normal termination of Gaussian 09 at Tue Mar 11 10:47:59 2014.

 ---------------------------------------------------------
 #P Geom=AllCheck Guess=TCheck SCRF=Check B3LYP/CBSB7 Freq
 ---------------------------------------------------------

 Structure from the checkpoint file:  C9H18O_23_26.chk
 -----------------------------------------
 C9H18O_23_26 using cbs-qb3 to cal. energy
 -----------------------------------------
 Charge =  0 Multiplicity = 1

 SCF Done:  E(RB3LYP) =  -429.120498620     A.U. after    1 cycles

  Exact polarizability: 132.108   2.109  95.431  -1.153  -1.619  93.865
 Approx polarizability: 151.775   2.659 140.543  -4.039   0.468 141.425

                     1                      2                      3
                     A                      A                      A
 Frequencies --    37.8748                54.2973                84.9054
 Red. masses --     2.7787                 3.0183                 2.9753
 Frc consts  --     0.0023                 0.0052                 0.0126
 IR Inten    --     0.6891                 0.6924                 0.4348

                     4                      5                      6
                     A                      A                      A
 Frequencies --   116.9111               149.1107               188.4330
 Red. masses --     2.0082                 1.1033                 1.2308
 Frc consts  --     0.0162                 0.0145                 0.0257
 IR Inten    --     0.2167                 0.1071                 0.4324

                     7                      8                      9
                     A                      A                      A
 Frequencies --   217.3652               229.5217               234.4580
 Red. masses --     1.1375                 2.5384                 1.5355
 Frc consts  --     0.0317                 0.0788                 0.0497
 IR Inten    --     0.0069                 0.2288                 0.1776

                    10                     11                     12
                     A                      A                      A
 Frequencies --   246.1134               261.3320               368.8986
 Red. masses --     1.6789                 1.7610                 2.2980
 Frc consts  --     0.0599                 0.0709                 0.1843
 IR Inten    --     0.6708                 0.4823                 1.1163

                    13                     14                     15
                     A                      A                      A
 Frequencies --   382.9889               400.7790               429.5181
 Red. masses --     2.3287                 2.4798                 2.4684
 Frc consts  --     0.2013                 0.2347                 0.2683
 IR Inten    --     2.0286                 2.2718                 2.5806

                    16                     17                     18
                     A                      A                      A
 Frequencies --   441.5203               518.6262               528.9570
 Red. masses --     2.3613                 2.7257                 2.9202
 Frc consts  --     0.2712                 0.4319                 0.4814
 IR Inten    --     1.8976                 0.6978                 8.6356

                    19                     20                     21
                     A                      A                      A
 Frequencies --   695.7112               754.6290               807.9610
 Red. masses --     4.6006                 1.6057                 2.1474
 Frc consts  --     1.3120                 0.5388                 0.8259
 IR Inten    --    10.4041                 2.1879                12.4429

                    22                     23                     24
                     A                      A                      A
 Frequencies --   836.3802               894.3315               930.3836
 Red. masses --     2.6033                 2.9435                 1.2487
 Frc consts  --     1.0730                 1.3871                 0.6368
 IR Inten    --     3.6203                23.1792                 1.0487

                    25                     26                     27
                     A                      A                      A
 Frequencies --   939.8725               944.6964               962.7307
 Red. masses --     1.7213                 1.5048                 1.4385
 Frc consts  --     0.8959                 0.7912                 0.7856
 IR Inten    --     0.3187                 0.6584                 0.2713

                    28                     29                     30
                     A                      A                      A
 Frequencies --   972.7289               995.4395              1030.5615
 Red. masses --     1.9144                 1.4322                 1.5553
 Frc consts  --     1.0672                 0.8361                 0.9732
 IR Inten    --     1.3787                 1.3047                 2.9188

                    31                     32                     33
                     A                      A                      A
 Frequencies --  1040.1393              1091.2019              1122.4299
 Red. masses --     2.5824                 1.5996                 1.7645
 Frc consts  --     1.6461                 1.1222                 1.3098
 IR Inten    --     0.7029                 5.6681                 8.6698

                    34                     35                     36
                     A                      A                      A
 Frequencies --  1145.5945              1153.6525              1167.3955
 Red. masses --     1.9880                 2.0269                 2.0187
 Frc consts  --     1.5372                 1.5894                 1.6209
 IR Inten    --    12.7615                 7.7112                 1.6465

                    37                     38                     39
                     A                      A                      A
 Frequencies --  1191.8327              1237.4868              1264.1269
 Red. masses --     1.7809                 1.4882                 2.2669
 Frc consts  --     1.4904                 1.3427                 2.1343
 IR Inten    --     6.5762                 7.8525                 9.7768

                    40                     41                     42
                     A                      A                      A
 Frequencies --  1288.7960              1325.4468              1348.1871
 Red. masses --     1.2947                 1.1631                 1.3278
 Frc consts  --     1.2670                 1.2039                 1.4220
 IR Inten    --     1.5308                 1.8597                 1.0119

                    43                     44                     45
                     A                      A                      A
 Frequencies --  1360.2105              1371.6804              1394.1826
 Red. masses --     1.5435                 1.3198                 1.5252
 Frc consts  --     1.6826                 1.4630                 1.7467
 IR Inten    --    18.8366                 3.8276                 0.3319

                    46                     47                     48
                     A                      A                      A
 Frequencies --  1403.9993              1410.7863              1420.4484
 Red. masses --     1.2572                 1.3650                 1.2622
 Frc consts  --     1.4601                 1.6007                 1.5005
 IR Inten    --     8.8582                17.8312                 7.8039

                    49                     50                     51
                     A                      A                      A
 Frequencies --  1423.4960              1467.5373              1473.2796
 Red. masses --     1.2410                 1.4605                 1.0991
 Frc consts  --     1.4816                 1.8532                 1.4056
 IR Inten    --     4.4428                 3.4476                 0.1034

                    52                     53                     54
                     A                      A                      A
 Frequencies --  1478.7759              1488.3879              1490.3778
 Red. masses --     1.0620                 1.0599                 1.0549
 Frc consts  --     1.3682                 1.3833                 1.3805
 IR Inten    --     0.6979                 1.3258                 2.1152

                    55                     56                     57
                     A                      A                      A
 Frequencies --  1493.0191              1500.5524              1504.9685
 Red. masses --     1.0512                 1.0798                 1.0745
 Frc consts  --     1.3806                 1.4325                 1.4339
 IR Inten    --     2.5031                 3.3296                15.4836

                    58                     59                     60
                     A                      A                      A
 Frequencies --  1506.5926              1512.4480              1520.5059
 Red. masses --     1.0558                 1.0495                 1.5445
 Frc consts  --     1.4119                 1.4145                 2.1038
 IR Inten    --     3.3951                15.1131                 3.6335

                    61                     62                     63
                     A                      A                      A
 Frequencies --  2985.5849              2999.7125              3013.3320
 Red. masses --     1.0794                 1.0667                 1.0369
 Frc consts  --     5.6686                 5.6553                 5.5476
 IR Inten    --     3.9734                27.1602                24.5144

                    64                     65                     66
                     A                      A                      A
 Frequencies --  3018.7098              3022.3359              3023.8125
 Red. masses --     1.0419                 1.0617                 1.0372
 Frc consts  --     5.5942                 5.7138                 5.5876
 IR Inten    --    36.0694                20.8012                18.9472

                    67                     68                     69
                     A                      A                      A
 Frequencies --  3030.8679              3046.7984              3056.9190
 Red. masses --     1.0401                 1.0908                 1.0876
 Frc consts  --     5.6292                 5.9659                 5.9880
 IR Inten    --    34.1229                18.3062                12.7066

                    70                     71                     72
                     A                      A                      A
 Frequencies --  3072.3396              3078.3183              3079.3086
 Red. masses --     1.1001                 1.0996                 1.1013
 Frc consts  --     6.1181                 6.1390                 6.1526
 IR Inten    --     4.4151                12.7628                 1.2453

                    73                     74                     75
                     A                      A                      A
 Frequencies --  3081.0036              3085.0330              3085.4876
 Red. masses --     1.0988                 1.1008                 1.1016
 Frc consts  --     6.1452                 6.1730                 6.1789
 IR Inten    --   114.5823                25.1337                75.1488

                    76                     77                     78
                     A                      A                      A
 Frequencies --  3090.2398              3110.8812              3132.4979
 Red. masses --     1.1003                 1.1008                 1.0970
 Frc consts  --     6.1907                 6.2766                 6.3423
 IR Inten    --    44.7163                26.4527                25.3008

 - Thermochemistry -
 -------------------
 Temperature   298.150 Kelvin.  Pressure   1.00000 Atm.
 Atom     1 has atomic number  6 and mass  12.00000

 Molecular mass:   142.13577 amu.
 Principal axes and moments of inertia in atomic units:
                           1         2         3
     Eigenvalues --   570.356283623.611313751.76916
           X            0.99997   0.00701   0.00097
           Y           -0.00694   0.99800  -0.06284
           Z           -0.00141   0.06283   0.99802
 This molecule is an asymmetric top.
 Rotational symmetry number  1.
 Warning -- assumption of classical behavior for rotation
           may cause significant error
 Rotational temperatures (Kelvin)      0.15186     0.02390     0.02309
 Rotational constants (GHZ):           3.16423     0.49805     0.48104
 Zero-point vibrational energy     665529.0 (Joules/Mol)
                                  159.06524 (Kcal/Mol)
 Warning -- explicit consideration of  18 degrees of freedom as
           vibrations may cause significant error
 Vibrational temperatures:     54.49    78.12   122.16   168.21   214.54
          (Kelvin)            271.11   312.74   330.23   337.33   354.10
                              376.00   530.76   551.03   576.63   617.98
                              635.25   746.19   761.05  1000.97  1085.74
                             1162.47  1203.36  1286.74  1338.61  1352.27
                             1359.21  1385.15  1399.54  1432.21  1482.75
                             1496.53  1569.99  1614.92  1648.25  1659.85
                             1679.62  1714.78  1780.47  1818.79  1854.29
                             1907.02  1939.74  1957.04  1973.54  2005.92
                             2020.04  2029.80  2043.71  2048.09  2111.46
                             2119.72  2127.63  2141.46  2144.32  2148.12
                             2158.96  2165.31  2167.65  2176.07  2187.67
                             4295.59  4315.91  4335.51  4343.24  4348.46
                             4350.59  4360.74  4383.66  4398.22  4420.41
                             4429.01  4430.43  4432.87  4438.67  4439.32
                             4446.16  4475.86  4506.96

 Zero-point correction=                           0.253487 (Hartree/Particle)
 Thermal correction to Energy=                    0.266185
 Thermal correction to Enthalpy=                  0.267129
 Thermal correction to Gibbs Free Energy=         0.214498
 Sum of electronic and zero-point Energies=           -428.867012
 Sum of electronic and thermal Energies=              -428.854313
 Sum of electronic and thermal Enthalpies=            -428.853369
 Sum of electronic and thermal Free Energies=         -428.906001

                     E (Thermal)             CV                S
                      KCal/Mol        Cal/Mol-Kelvin    Cal/Mol-Kelvin
 Total                  167.034             46.544            110.773
 Electronic               0.000              0.000              0.000
 Translational            0.889              2.981             40.766
 Rotational               0.889              2.981             30.429
 Vibrational            165.256             40.583             39.578
 Vibration     1          0.594              1.982              5.367
 Vibration     2          0.596              1.976              4.654
 Vibration     3          0.601              1.960              3.774
 Vibration     4          0.608              1.935              3.151
 Vibration     5          0.618              1.904              2.684
 Vibration     6          0.633              1.856              2.243
 Vibration     7          0.646              1.815              1.981
 Vibration     8          0.652              1.796              1.883
 Vibration     9          0.654              1.788              1.845
 Vibration    10          0.661              1.769              1.758
 Vibration    11          0.669              1.744              1.653
 Vibration    12          0.741              1.536              1.084
 Vibration    13          0.752              1.506              1.027
 Vibration    14          0.767              1.468              0.960
 Vibration    15          0.791              1.406              0.860
 Vibration    16          0.801              1.380              0.822
 Vibration    17          0.874              1.209              0.613
 Vibration    18          0.884              1.186              0.590

 Optimization completed.
    -- Stationary point found.
 Normal termination of Gaussian 09 at Tue Mar 11 10:53:10 2014.

 -----------------------------------------------------------
 #P Geom=AllCheck Guess=TCheck SCRF=Check CCSD(T)/6-31+G(d')
 -----------------------------------------------------------

 Structure from the checkpoint file:  C9H18O_23_26.chk
 -----------------------------------------
 C9H18O_23_26 using cbs-qb3 to cal. energy
 -----------------------------------------
 Charge =  0 Multiplicity = 1

 SCF Done:  E(RHF) =  -426.127993547     A.U. after   13 cycles
 E2 =    -0.1397521096D+01 EUMP2 =    -0.42752551464300D+03
 CCSD(T)
 CCSD(T)= -0.42767757390D+03
 4\MP4SDQ=-427.6276967\CCSD=-427.6283221\CCSD(T)=-427.6775739\RMSD=2.50
 Normal termination of Gaussian 09 at Tue Mar 11 15:28:26 2014.

 -----------------------------------------------------
 #P Geom=AllCheck Guess=TCheck SCRF=Check MP4SDQ/CBSB4
 -----------------------------------------------------

 Structure from the checkpoint file:  C9H18O_23_26.chk
 -----------------------------------------
 C9H18O_23_26 using cbs-qb3 to cal. energy
 -----------------------------------------
 Charge =  0 Multiplicity = 1

 SCF Done:  E(RHF) =  -426.151446402     A.U. after   11 cycles
 E2 =    -0.1515267597D+01 EUMP2 =    -0.42766671399882D+03
 Normal termination of Gaussian 09 at Tue Mar 11 15:36:12 2014.

 ----------------------------------------------------------------------
 #P Geom=AllCheck Guess=TCheck SCRF=Check MP2/CBSB3 CBSExtrap=(NMin=10,
 MinPop)
 ----------------------------------------------------------------------

 Structure from the checkpoint file:  C9H18O_23_26.chk
 -----------------------------------------
 C9H18O_23_26 using cbs-qb3 to cal. energy
 -----------------------------------------
 Charge =  0 Multiplicity = 1

                         Standard orientation:
 ---------------------------------------------------------------------
 Center     Atomic      Atomic             Coordinates (Angstroms)
 Number     Number       Type             X           Y           Z
 ---------------------------------------------------------------------
      1          6           0        3.675064   -0.332441    0.799718
      2          1           0        3.436932   -1.122473    1.513903
      3          1           0        4.047831    0.536773    1.350460
      4          1           0        4.479815   -0.691340    0.150751
      5          6           0        1.116895   -0.244284    0.530949
      6          1           0        1.100564   -0.697810    1.524599
      7          6           0       -0.164167    0.472668    0.177582
      8          1           0       -0.068008    0.965252   -0.793570
      9          1           0       -0.329371    1.259910    0.922366
     10          6           0       -1.357978   -0.493950    0.138929
     11          1           0       -1.488592   -0.954552    1.127748
     12          1           0       -1.107081   -1.308536   -0.548997
     13          6           0       -2.693553    0.134751   -0.299580
     14          1           0       -2.528617    0.616017   -1.273581
     15          6           0       -3.758507   -0.954102   -0.490805
     16          1           0       -3.962259   -1.469681    0.454073
     17          1           0       -4.701690   -0.529244   -0.846561
     18          1           0       -3.433189   -1.705273   -1.216200
     19          6           0        2.697726    1.091483   -1.076280
     20          1           0        2.989220    2.038550   -0.611499
     21          1           0        3.511548    0.778669   -1.737617
     22          1           0        1.815061    1.260891   -1.691122
     23          6           0       -3.189757    1.208723    0.679208
     24          1           0       -4.142331    1.630571    0.345691
     25          1           0       -3.347751    0.781922    1.676133
     26          1           0       -2.483028    2.036350    0.778650
     27          6           0        2.457380    0.029147   -0.025752
     28          8           0        1.689041   -1.112246   -0.466130
 ---------------------------------------------------------------------

 SCF Done:  E(RHF) =  -426.263892213     A.U. after   12 cycles
 E2 =    -0.1773239983D+01 EUMP2 =    -0.42803713219563D+03
 E2(CBS)=      -1.942865 CBS-Int=       0.058901 OIii=      15.550379

 The electronic state is 1-A.
 Alpha  occ. eigenvalues --  -20.55315 -11.28689 -11.27648 -11.22429 -11.22277
 Alpha  occ. eigenvalues --  -11.21983 -11.21872 -11.21470 -11.20957 -11.20758
 Alpha  occ. eigenvalues --   -1.39582  -1.09333  -1.03765  -1.02141  -0.94773
 Alpha  occ. eigenvalues --   -0.92707  -0.90412  -0.82412  -0.76510  -0.75398
 Alpha  occ. eigenvalues --   -0.66908  -0.63860  -0.63413  -0.60374  -0.59038
 Alpha  occ. eigenvalues --   -0.58378  -0.57654  -0.55366  -0.54371  -0.53326
 Alpha  occ. eigenvalues --   -0.53296  -0.50927  -0.50757  -0.49383  -0.48311
 Alpha  occ. eigenvalues --   -0.46512  -0.45717  -0.45458  -0.42914  -0.40282
 Alpha virt. eigenvalues --    0.03908   0.04693   0.04951   0.05487   0.06418
 Alpha virt. eigenvalues --    0.06633   0.06685   0.07737   0.08055   0.08575
 Alpha virt. eigenvalues --    0.08867   0.09418   0.09782   0.10728   0.11565

 Mulliken atomic charges:
              1
     1  C   -0.346793
     2  H    0.090059
     3  H    0.050473
     4  H    0.076552
     5  C    0.158841
     6  H    0.135232
     7  C   -0.229131
     8  H    0.060523
     9  H    0.008761
    10  C   -0.499505
    11  H    0.058549
    12  H    0.078626
    13  C    0.901240
    14  H    0.029084
    15  C   -0.407378
    16  H    0.053216
    17  H    0.094603
    18  H    0.061399
    19  C   -0.223683
    20  H    0.059943
    21  H    0.085447
    22  H    0.089417
    23  C   -0.552498
    24  H    0.084185
    25  H    0.064687
    26  H    0.073248
    27  C    0.268713
    28  O   -0.323810
 Sum of Mulliken atomic charges =   0.00000

 Dipole moment (field-independent basis, Debye):
    X=              0.1376    Y=              1.8998    Z=              1.0178  Tot=              2.1597
 Quadrupole moment (field-independent basis, Debye-Ang):
   XX=            -62.8139   YY=            -68.5877   ZZ=            -64.8326
   XY=              3.2720   XZ=              1.7745   YZ=             -2.2667

 Normal termination of Gaussian 09 at Tue Mar 11 16:13:01 2014.
