 Gaussian 09, Revision C.01,

 --------------------------------------------------
 #p UB3LYP/6-311++G(d,p) guess=mix stable=(opt,xqc)
 --------------------------------------------------

 (Enter /usr/caen/gaussian-09revc/g09/l101.exe)
 --------------------------------------------
 C9H18OOH_3_26_f using cbs-qb3 to cal. energy
 --------------------------------------------
 Charge =  0 Multiplicity = 2

 SCF Done:  E(UB3LYP) =  -504.856926033     A.U. after   17 cycles
 Normal termination of Gaussian 09 at Sun Feb  9 07:28:09 2014.
 Gaussian 09:  EM64L-G09RevC.01 23-Sep-2011

 ------------------------------------------------
 #p cbs-qb3 opt=calcfc freq geom=check guess=read
 ------------------------------------------------

 ---------------------
 optimization and freq
 ---------------------
 Structure from the checkpoint file:  C9H18OOH_3_26_f.chk
 Charge =  0 Multiplicity = 2

 SCF Done:  E(UB3LYP) =  -504.849150324     A.U. after   11 cycles
 SCF Done:  E(UB3LYP) =  -504.849244146     A.U. after   12 cycles
 SCF Done:  E(UB3LYP) =  -504.849267817     A.U. after   11 cycles
 SCF Done:  E(UB3LYP) =  -504.848297104     A.U. after   13 cycles
 SCF Done:  E(UB3LYP) =  -504.849270904     A.U. after   13 cycles
 SCF Done:  E(UB3LYP) =  -504.849102127     A.U. after   15 cycles
 SCF Done:  E(UB3LYP) =  -504.849280530     A.U. after   14 cycles
 SCF Done:  E(UB3LYP) =  -504.849285997     A.U. after   10 cycles
 SCF Done:  E(UB3LYP) =  -504.849286554     A.U. after    9 cycles
 SCF Done:  E(UB3LYP) =  -504.849286700     A.U. after    7 cycles
 SCF Done:  E(UB3LYP) =  -504.849286703     A.U. after    7 cycles
 SCF Done:  E(UB3LYP) =  -504.849286692     A.U. after    7 cycles
 Optimization completed.
    -- Stationary point found.
 Normal termination of Gaussian 09 at Sun Feb  9 07:53:28 2014.

 ---------------------------------------------------------
 #P Geom=AllCheck Guess=TCheck SCRF=Check B3LYP/CBSB7 Freq
 ---------------------------------------------------------

 Structure from the checkpoint file:  C9H18OOH_3_26_f.chk
 ---------------------
 optimization and freq
 ---------------------
 Charge =  0 Multiplicity = 2

 SCF Done:  E(UB3LYP) =  -504.849286692     A.U. after    1 cycles

  Exact polarizability: 137.034  -2.364 112.812   1.333   1.246  95.802
 Approx polarizability: 159.022  -5.582 155.464   4.603  -1.456 148.753

                     1                      2                      3
                     A                      A                      A
 Frequencies --    26.1026                39.7353                52.0346
 Red. masses --     2.8517                 2.6547                 3.4291
 Frc consts  --     0.0011                 0.0025                 0.0055
 IR Inten    --     0.1639                 0.1267                 1.1758

                     4                      5                      6
                     A                      A                      A
 Frequencies --    72.4565                87.2294               110.7759
 Red. masses --     2.4993                 1.4546                 1.8406
 Frc consts  --     0.0077                 0.0065                 0.0133
 IR Inten    --     0.7480                 0.2043                 0.8137

                     7                      8                      9
                     A                      A                      A
 Frequencies --   116.5086               132.6323               196.1956
 Red. masses --     1.1112                 3.2568                 2.8753
 Frc consts  --     0.0089                 0.0338                 0.0652
 IR Inten    --     0.0863                 2.6754                12.0341

                    10                     11                     12
                     A                      A                      A
 Frequencies --   214.7670               225.9569               249.3654
 Red. masses --     1.0647                 1.6994                 1.8687
 Frc consts  --     0.0289                 0.0511                 0.0685
 IR Inten    --     6.2175                54.2436                65.3717

                    13                     14                     15
                     A                      A                      A
 Frequencies --   279.5530               283.7975               307.8855
 Red. masses --     1.6754                 2.0411                 1.8175
 Frc consts  --     0.0771                 0.0969                 0.1015
 IR Inten    --     4.0615                 0.9035                14.7513

                    16                     17                     18
                     A                      A                      A
 Frequencies --   356.1047               373.7487               403.6143
 Red. masses --     2.5911                 2.1990                 2.5333
 Frc consts  --     0.1936                 0.1810                 0.2431
 IR Inten    --     1.7798                 0.4816                 0.6628

                    19                     20                     21
                     A                      A                      A
 Frequencies --   414.5847               440.1059               496.3434
 Red. masses --     2.7461                 2.6416                 3.3278
 Frc consts  --     0.2781                 0.3015                 0.4830
 IR Inten    --     2.0062                 0.9850                 3.4586

                    22                     23                     24
                     A                      A                      A
 Frequencies --   573.2382               744.6232               778.4018
 Red. masses --     3.3916                 1.3717                 3.2757
 Frc consts  --     0.6566                 0.4481                 1.1694
 IR Inten    --     6.6527                 0.2630                 0.2006

                    25                     26                     27
                     A                      A                      A
 Frequencies --   848.2312               885.9499               930.5632
 Red. masses --     2.3920                 2.5885                 2.1008
 Frc consts  --     1.0140                 1.1971                 1.0718
 IR Inten    --     3.6677                11.6696                11.1617

                    28                     29                     30
                     A                      A                      A
 Frequencies --   934.8386               942.9684               949.1222
 Red. masses --     1.2314                 1.2440                 3.7857
 Frc consts  --     0.6340                 0.6517                 2.0093
 IR Inten    --     1.9233                 1.1338                 3.6321

                    31                     32                     33
                     A                      A                      A
 Frequencies --   966.0293               977.2517               982.1414
 Red. masses --     1.4139                 2.1235                 1.4800
 Frc consts  --     0.7774                 1.1948                 0.8411
 IR Inten    --     0.6787                 1.8518                 3.3819

                    34                     35                     36
                     A                      A                      A
 Frequencies --  1011.3516              1031.3375              1038.6432
 Red. masses --     2.2431                 2.9773                 1.5537
 Frc consts  --     1.3518                 1.8659                 0.9875
 IR Inten    --     1.1350                17.3001                 0.7881

                    37                     38                     39
                     A                      A                      A
 Frequencies --  1063.4500              1132.2619              1143.7614
 Red. masses --     1.9349                 2.1135                 1.8294
 Frc consts  --     1.2893                 1.5964                 1.4100
 IR Inten    --     2.3328                 2.4083                 4.7501

                    40                     41                     42
                     A                      A                      A
 Frequencies --  1191.4621              1195.5003              1255.3814
 Red. masses --     1.9412                 1.7978                 1.4601
 Frc consts  --     1.6236                 1.5139                 1.3557
 IR Inten    --     6.0016                 1.3155                 1.5331

                    43                     44                     45
                     A                      A                      A
 Frequencies --  1284.3225              1299.2278              1323.4499
 Red. masses --     1.9494                 1.5537                 1.6182
 Frc consts  --     1.8946                 1.5452                 1.6699
 IR Inten    --     2.8029                 7.3671                 4.1863

                    46                     47                     48
                     A                      A                      A
 Frequencies --  1337.1315              1348.9232              1356.7144
 Red. masses --     1.3113                 1.3591                 1.2174
 Frc consts  --     1.3813                 1.4570                 1.3202
 IR Inten    --     8.8266                 3.3045                34.4070

                    49                     50                     51
                     A                      A                      A
 Frequencies --  1362.9373              1373.3902              1393.5648
 Red. masses --     1.2463                 1.3649                 1.3709
 Frc consts  --     1.3640                 1.5168                 1.5686
 IR Inten    --     3.2100                 1.1034                18.1373

                    52                     53                     54
                     A                      A                      A
 Frequencies --  1398.5726              1400.6826              1415.3369
 Red. masses --     1.2963                 1.2502                 1.2070
 Frc consts  --     1.4939                 1.4452                 1.4245
 IR Inten    --     5.7193                 7.1576                 1.4815

                    55                     56                     57
                     A                      A                      A
 Frequencies --  1422.3310              1470.5620              1471.9993
 Red. masses --     1.2223                 1.0719                 1.0749
 Frc consts  --     1.4569                 1.3658                 1.3723
 IR Inten    --     8.3077                 1.0772                 2.4148

                    58                     59                     60
                     A                      A                      A
 Frequencies --  1477.9426              1481.7737              1491.9012
 Red. masses --     1.0527                 1.0559                 1.0502
 Frc consts  --     1.3548                 1.3659                 1.3773
 IR Inten    --     3.3629                12.5422                 1.6332

                    61                     62                     63
                     A                      A                      A
 Frequencies --  1495.6441              1498.6191              1499.8308
 Red. masses --     1.0696                 1.0720                 1.0789
 Frc consts  --     1.4097                 1.4185                 1.4300
 IR Inten    --     1.4667                 1.0320                 4.8731

                    64                     65                     66
                     A                      A                      A
 Frequencies --  1507.7096              1524.4315              2920.6526
 Red. masses --     1.0539                 1.0489                 1.0618
 Frc consts  --     1.4115                 1.4362                 5.3364
 IR Inten    --     6.9813                12.3245                33.8045

                    67                     68                     69
                     A                      A                      A
 Frequencies --  2925.5920              2972.2015              2999.1862
 Red. masses --     1.0639                 1.0695                 1.0828
 Frc consts  --     5.3653                 5.5665                 5.7383
 IR Inten    --    86.4640                38.1948                 9.4003

                    70                     71                     72
                     A                      A                      A
 Frequencies --  3020.0696              3022.7490              3023.6617
 Red. masses --     1.0380                 1.0684                 1.0457
 Frc consts  --     5.5783                 5.7517                 5.6328
 IR Inten    --    23.4112                14.4350                18.7018

                    73                     74                     75
                     A                      A                      A
 Frequencies --  3025.2944              3027.3147              3037.2637
 Red. masses --     1.0659                 1.0591                 1.0764
 Frc consts  --     5.7477                 5.7189                 5.8504
 IR Inten    --    41.8231                13.8957                35.8986

                    76                     77                     78
                     A                      A                      A
 Frequencies --  3058.4435              3070.0165              3073.8153
 Red. masses --     1.0917                 1.1002                 1.1007
 Frc consts  --     6.0168                 6.1096                 6.1273
 IR Inten    --     1.8808                 9.2351                50.2652

                    79                     80                     81
                     A                      A                      A
 Frequencies --  3078.3795              3081.0386              3086.6418
 Red. masses --     1.0995                 1.1005                 1.1004
 Frc consts  --     6.1391                 6.1552                 6.1769
 IR Inten    --    43.2897                 7.7998                65.0949

                    82                     83                     84
                     A                      A                      A
 Frequencies --  3092.1924              3097.0745              3772.5454
 Red. masses --     1.1021                 1.0998                 1.0685
 Frc consts  --     6.2087                 6.2155                 8.9599
 IR Inten    --    44.2920                38.6867                31.3509

 - Thermochemistry -
 -------------------
 Temperature   298.150 Kelvin.  Pressure   1.00000 Atm.
 Atom     1 has atomic number  6 and mass  12.00000

 Molecular mass:   159.13850 amu.
 Principal axes and moments of inertia in atomic units:
                           1         2         3
     Eigenvalues --  1073.681543632.650334360.01565
           X            0.99991   0.01304  -0.00105
           Y           -0.01301   0.99967   0.02212
           Z            0.00134  -0.02211   0.99975
 This molecule is an asymmetric top.
 Rotational symmetry number  1.
 Warning -- assumption of classical behavior for rotation
           may cause significant error
 Rotational temperatures (Kelvin)      0.08067     0.02384     0.01987
 Rotational constants (GHZ):           1.68089     0.49681     0.41393
 Zero-point vibrational energy     696688.0 (Joules/Mol)
                                  166.51243 (Kcal/Mol)
 Warning -- explicit consideration of  22 degrees of freedom as
           vibrations may cause significant error
 Vibrational temperatures:     37.56    57.17    74.87   104.25   125.50
          (Kelvin)            159.38   167.63   190.83   282.28   309.00
                              325.10   358.78   402.21   408.32   442.98
                              512.35   537.74   580.71   596.49   633.21
                              714.13   824.76  1071.35  1119.95  1220.41
                             1274.68  1338.87  1345.02  1356.72  1365.57
                             1389.90  1406.05  1413.08  1455.11  1483.86
                             1494.37  1530.07  1629.07  1645.62  1714.25
                             1720.06  1806.21  1847.85  1869.30  1904.15
                             1923.83  1940.80  1952.01  1960.96  1976.00
                             2005.03  2012.23  2015.27  2036.35  2046.41
                             2115.81  2117.88  2126.43  2131.94  2146.51
                             2151.90  2156.18  2157.92  2169.26  2193.31
                             4202.16  4209.27  4276.33  4315.15  4345.20
                             4349.06  4350.37  4352.72  4355.63  4369.94
                             4400.41  4417.06  4422.53  4429.10  4432.92
                             4440.98  4448.97  4455.99  5427.84

 Zero-point correction=                           0.265354 (Hartree/Particle)
 Thermal correction to Energy=                    0.280772
 Thermal correction to Enthalpy=                  0.281716
 Thermal correction to Gibbs Free Energy=         0.221012
 Sum of electronic and zero-point Energies=           -504.583932
 Sum of electronic and thermal Energies=              -504.568514
 Sum of electronic and thermal Enthalpies=            -504.567570
 Sum of electronic and thermal Free Energies=         -504.628275

                     E (Thermal)             CV                S
                      KCal/Mol        Cal/Mol-Kelvin    Cal/Mol-Kelvin
 Total                  176.187             53.982            127.764
 Electronic               0.000              0.000              1.377
 Translational            0.889              2.981             41.103
 Rotational               0.889              2.981             31.209
 Vibrational            174.410             48.020             54.075
 Vibration     1          0.593              1.985              6.106
 Vibration     2          0.594              1.981              5.272
 Vibration     3          0.596              1.977              4.739
 Vibration     4          0.599              1.967              4.085
 Vibration     5          0.601              1.958              3.721
 Vibration     6          0.607              1.941              3.255
 Vibration     7          0.608              1.936              3.157
 Vibration     8          0.613              1.921              2.908
 Vibration     9          0.636              1.845              2.168
 Vibration    10          0.645              1.818              2.003
 Vibration    11          0.650              1.801              1.911
 Vibration    12          0.662              1.764              1.735
 Vibration    13          0.680              1.711              1.536
 Vibration    14          0.682              1.704              1.511
 Vibration    15          0.698              1.659              1.374
 Vibration    16          0.732              1.563              1.139
 Vibration    17          0.745              1.526              1.064
 Vibration    18          0.769              1.462              0.949
 Vibration    19          0.778              1.439              0.911
 Vibration    20          0.800              1.383              0.826
 Vibration    21          0.852              1.258              0.667
 Vibration    22          0.929              1.089              0.498

 Optimization completed.
    -- Stationary point found.
 Normal termination of Gaussian 09 at Sun Feb  9 08:03:18 2014.

 -----------------------------------------------------------
 #P Geom=AllCheck Guess=TCheck SCRF=Check CCSD(T)/6-31+G(d')
 -----------------------------------------------------------

 Structure from the checkpoint file:  C9H18OOH_3_26_f.chk
 ---------------------
 optimization and freq
 ---------------------
 Charge =  0 Multiplicity = 2

 SCF Done:  E(UHF) =  -501.448250508     A.U. after   20 cycles
 E2 =    -0.1570565291D+01 EUMP2 =    -0.50301881579901D+03
 CCSD(T)
 CCSD(T)= -0.50319093395D+03
 1349273\CCSD=-503.1373281\CCSD(T)=-503.190934\S2=0.765368\S2-1=0.75426
 Normal termination of Gaussian 09 at Sun Feb  9 16:17:28 2014.

 -----------------------------------------------------
 #P Geom=AllCheck Guess=TCheck SCRF=Check MP4SDQ/CBSB4
 -----------------------------------------------------

 Structure from the checkpoint file:  C9H18OOH_3_26_f.chk
 ---------------------
 optimization and freq
 ---------------------
 Charge =  0 Multiplicity = 2

 SCF Done:  E(UHF) =  -501.480099211     A.U. after   13 cycles
 E2 =    -0.1695963378D+01 EUMP2 =    -0.50317606258921D+03
 Normal termination of Gaussian 09 at Sun Feb  9 16:40:46 2014.

 ----------------------------------------------------------------------
 #P Geom=AllCheck Guess=TCheck SCRF=Check MP2/CBSB3 CBSExtrap=(NMin=10,
 MinPop)
 ----------------------------------------------------------------------

 Structure from the checkpoint file:  C9H18OOH_3_26_f.chk
 ---------------------
 optimization and freq
 ---------------------
 Charge =  0 Multiplicity = 2

                         Standard orientation:
 ---------------------------------------------------------------------
 Center     Atomic      Atomic             Coordinates (Angstroms)
 Number     Number       Type             X           Y           Z
 ---------------------------------------------------------------------
      1          6           0        3.491027    0.128783   -0.436105
      2          1           0        3.491107   -0.796189   -1.018321
      3          1           0        3.797339   -0.099615    0.588977
      4          1           0        4.249152    0.785282   -0.872220
      5          6           0        2.115098    0.809155   -0.473717
      6          1           0        1.856710    0.969140   -1.528761
      7          6           0       -0.408697    0.351209   -0.327112
      8          1           0       -0.508319    0.068678   -1.381150
      9          1           0       -0.498953    1.440409   -0.287447
     10          6           0       -1.548547   -0.298159    0.490922
     11          1           0       -1.434141    0.012696    1.540032
     12          1           0       -1.403597   -1.381859    0.467921
     13          6           0       -2.918982    0.059914   -0.005914
     14          6           0       -3.744852   -0.955914   -0.727796
     15          1           0       -4.345452   -1.568750   -0.032189
     16          1           0       -4.456021   -0.487672   -1.417297
     17          1           0       -3.124356   -1.653068   -1.299143
     18          6           0        2.183216    2.179321    0.219034
     19          1           0        2.464296    2.067357    1.271671
     20          1           0        2.933327    2.816034   -0.257737
     21          1           0        1.230365    2.712402    0.182738
     22          6           0       -3.569317    1.321223    0.466687
     23          1           0       -4.244785    1.741600   -0.286934
     24          1           0       -4.181030    1.153954    1.370991
     25          1           0       -2.834465    2.089555    0.726613
     26          6           0        0.991341   -0.056388    0.144224
     27          1           0        1.051109   -0.013237    1.237323
     28          8           0        1.099841   -1.448338   -0.222543
     29          8           0        1.866771   -2.146307    0.795151
     30          1           0        2.683102   -2.334419    0.312727
 ---------------------------------------------------------------------

 SCF Done:  E(UHF) =  -501.617456958     A.U. after   13 cycles
 E2 =    -0.1998977507D+01 EUMP2 =    -0.50361643446522D+03
 E2(CBS)=      -2.193641 CBS-Int=       0.065755 OIii=      17.376897

 The electronic state is 2-A.
 Alpha  occ. eigenvalues --  -20.61747 -20.61404 -11.27991 -11.23299 -11.22183
 Alpha  occ. eigenvalues --  -11.22017 -11.21850 -11.21808 -11.21234 -11.21075
 Alpha  occ. eigenvalues --  -11.20848  -1.46301  -1.22576  -1.09779  -1.07952
 Alpha  occ. eigenvalues --   -1.01179  -0.93621  -0.93301  -0.91176  -0.83014
 Alpha  occ. eigenvalues --   -0.78000  -0.73717  -0.71473  -0.66727  -0.63913
 Alpha  occ. eigenvalues --   -0.62442  -0.61351  -0.60178  -0.59494  -0.58698
 Alpha  occ. eigenvalues --   -0.55882  -0.54183  -0.53834  -0.53688  -0.53414
 Alpha  occ. eigenvalues --   -0.51592  -0.50100  -0.49263  -0.49137  -0.48382
 Alpha  occ. eigenvalues --   -0.47135  -0.46631  -0.45444  -0.42450  -0.30325
 Alpha virt. eigenvalues --    0.03833   0.04547   0.05055   0.05359   0.06242
 Alpha virt. eigenvalues --    0.06648   0.06878   0.07524   0.08149   0.08822
 Alpha virt. eigenvalues --    0.08915   0.09052   0.09529   0.10157   0.11545

  Beta  occ. eigenvalues --  -20.61746 -20.61405 -11.27978 -11.23296 -11.21964
  Beta  occ. eigenvalues --  -11.21850 -11.21806 -11.21562 -11.21407 -11.21184
  Beta  occ. eigenvalues --  -11.19478  -1.46300  -1.22557  -1.08433  -1.06085
  Beta  occ. eigenvalues --   -1.00155  -0.93616  -0.93297  -0.91130  -0.82451
  Beta  occ. eigenvalues --   -0.77946  -0.71684  -0.69466  -0.66620  -0.63447
  Beta  occ. eigenvalues --   -0.62150  -0.60962  -0.59387  -0.58509  -0.56094
  Beta  occ. eigenvalues --   -0.55757  -0.53866  -0.53696  -0.53483  -0.52334
  Beta  occ. eigenvalues --   -0.51407  -0.49778  -0.49216  -0.48595  -0.48021
  Beta  occ. eigenvalues --   -0.47076  -0.46296  -0.45062  -0.42203
  Beta virt. eigenvalues --    0.03836   0.04547   0.05066   0.05359   0.06251
  Beta virt. eigenvalues --    0.06630   0.06847   0.07529   0.08126   0.08799
  Beta virt. eigenvalues --    0.08906   0.09053   0.09533   0.10127   0.11472

 Mulliken atomic charges:
              1
     1  C   -0.438267
     2  H    0.062765
     3  H    0.091257
     4  H    0.093335
     5  C    1.024107
     6  H    0.059096
     7  C   -0.557510
     8  H    0.141526
     9  H    0.035964
    10  C   -0.474102
    11  H    0.072337
    12  H    0.101215
    13  C    0.951794
    14  C   -0.450744
    15  H    0.052198
    16  H    0.069451
    17  H    0.084663
    18  C   -0.658522
    19  H    0.065173
    20  H    0.088641
    21  H    0.075178
    22  C   -0.492642
    23  H    0.064340
    24  H    0.054434
    25  H    0.078510
    26  C   -0.261721
    27  H    0.155671
    28  O   -0.104631
    29  O   -0.244267
    30  H    0.260751
 Sum of Mulliken atomic charges =   0.00000

 Dipole moment (field-independent basis, Debye):
    X=              1.1080    Y=              1.5572    Z=             -0.4273  Tot=              1.9584
 Quadrupole moment (field-independent basis, Debye-Ang):
   XX=            -65.6130   YY=            -73.9675   ZZ=            -72.7861
   XY=             -1.0640   XZ=             -1.1586   YZ=              1.3330

 Normal termination of Gaussian 09 at Sun Feb  9 17:38:16 2014.
