 Gaussian 09, Revision C.01,
 Gaussian 09:  EM64L-G09RevC.01 23-Sep-2011

 -------------------------------
 #p cbs-qb3 opt=(TS,calcfc) freq
 -------------------------------

 (Enter /usr/caen/gaussian-09revc/g09/l101.exe)
 ---------------------------------------------------
 TS_2a_1 using b3lyp/6-311++g(d,p) to calculate freq
 ---------------------------------------------------
 Charge =  0 Multiplicity = 2

 SCF Done:  E(UB3LYP) =  -504.824797789     A.U. after   19 cycles
 Optimization completed.
    -- Stationary point found.
 Normal termination of Gaussian 09 at Mon Apr 21 11:04:11 2014.

 ---------------------------------------------------------
 #P Geom=AllCheck Guess=TCheck SCRF=Check B3LYP/CBSB7 Freq
 ---------------------------------------------------------

 Structure from the checkpoint file:  TS_2a_1.chk
 ---------------------------------------------------
 TS_2a_1 using b3lyp/6-311++g(d,p) to calculate freq
 ---------------------------------------------------
 Charge =  0 Multiplicity = 2

 SCF Done:  E(UB3LYP) =  -504.824797789     A.U. after    1 cycles

  Exact polarizability: 132.185  -2.749 131.319  -1.447   1.110 101.828
 Approx polarizability: 151.157  -8.377 215.249   0.581  -3.727 157.895

 ******    1 imaginary frequencies (negative Signs) ******

                     1                      2                      3
                     A                      A                      A
 Frequencies --  -516.9956                28.2896                40.6738
 Red. masses --     9.7646                 2.7734                 4.6252
 Frc consts  --     1.5377                 0.0013                 0.0045
 IR Inten    --    76.6665                 0.1469                 0.7220

                     4                      5                      6
                     A                      A                      A
 Frequencies --    68.2587                92.3889               119.2999
 Red. masses --     3.8969                 3.1853                 2.7807
 Frc consts  --     0.0107                 0.0160                 0.0233
 IR Inten    --     6.7001                 0.2153                 4.8685

                     7                      8                      9
                     A                      A                      A
 Frequencies --   132.9458               198.7111               214.5942
 Red. masses --     1.7337                 1.9272                 1.9139
 Frc consts  --     0.0181                 0.0448                 0.0519
 IR Inten    --     0.2430                 0.1992                 2.5986

                    10                     11                     12
                     A                      A                      A
 Frequencies --   232.3717               241.4899               251.2268
 Red. masses --     1.1186                 1.6636                 1.9445
 Frc consts  --     0.0356                 0.0572                 0.0723
 IR Inten    --     0.2855                 1.4626                 1.2777

                    13                     14                     15
                     A                      A                      A
 Frequencies --   259.7277               276.4222               316.8012
 Red. masses --     1.5853                 2.4310                 3.5774
 Frc consts  --     0.0630                 0.1094                 0.2115
 IR Inten    --     0.3969                 5.7791                 3.4806

                    16                     17                     18
                     A                      A                      A
 Frequencies --   380.1149               389.5993               429.6657
 Red. masses --     2.5592                 2.1904                 1.9635
 Frc consts  --     0.2179                 0.1959                 0.2136
 IR Inten    --     3.2452                 0.2786                41.5488

                    19                     20                     21
                     A                      A                      A
 Frequencies --   440.2836               452.1769               473.4684
 Red. masses --     2.3468                 1.5176                 2.0373
 Frc consts  --     0.2680                 0.1828                 0.2691
 IR Inten    --     7.6195                39.4067                18.2634

                    22                     23                     24
                     A                      A                      A
 Frequencies --   483.3576               528.3159               747.5935
 Red. masses --     1.1052                 2.4667                 1.1475
 Frc consts  --     0.1521                 0.4056                 0.3779
 IR Inten    --    14.3073                 1.0796                 0.7362

                    25                     26                     27
                     A                      A                      A
 Frequencies --   790.8869               799.2536               828.9463
 Red. masses --     1.4335                 2.8296                 1.9800
 Frc consts  --     0.5283                 1.0650                 0.8016
 IR Inten    --    24.6935                 6.0901                11.4844

                    28                     29                     30
                     A                      A                      A
 Frequencies --   855.0367               917.5055               929.3185
 Red. masses --     1.7381                 6.6904                 1.2236
 Frc consts  --     0.7487                 3.3183                 0.6226
 IR Inten    --     4.1342               144.5532                 1.2790

                    31                     32                     33
                     A                      A                      A
 Frequencies --   946.2155               949.5813               965.3459
 Red. masses --     1.8826                 1.7509                 1.4631
 Frc consts  --     0.9931                 0.9302                 0.8033
 IR Inten    --    10.0039                 2.1825                 0.0930

                    34                     35                     36
                     A                      A                      A
 Frequencies --   999.4822              1015.6805              1038.5285
 Red. masses --     1.5758                 1.4790                 1.4098
 Frc consts  --     0.9275                 0.8989                 0.8959
 IR Inten    --     0.5566                 0.2993                 0.7094

                    37                     38                     39
                     A                      A                      A
 Frequencies --  1048.9828              1063.7788              1138.2623
 Red. masses --     2.9175                 2.2630                 1.5912
 Frc consts  --     1.8914                 1.5088                 1.2147
 IR Inten    --     0.4171                 0.6645                 0.7423

                    40                     41                     42
                     A                      A                      A
 Frequencies --  1143.8868              1191.0596              1226.3786
 Red. masses --     1.9990                 1.7671                 1.5563
 Frc consts  --     1.5411                 1.4770                 1.3791
 IR Inten    --     1.7069                 5.0470                 2.1873

                    43                     44                     45
                     A                      A                      A
 Frequencies --  1232.4637              1287.3168              1310.1664
 Red. masses --     1.7880                 1.4508                 1.2468
 Frc consts  --     1.6002                 1.4165                 1.2610
 IR Inten    --     4.1782                 3.5043                 1.2345

                    46                     47                     48
                     A                      A                      A
 Frequencies --  1335.0407              1344.0902              1348.5278
 Red. masses --     1.0881                 1.4003                 1.1430
 Frc consts  --     1.1427                 1.4905                 1.2247
 IR Inten    --     0.8729                 7.1137                24.4593

                    49                     50                     51
                     A                      A                      A
 Frequencies --  1367.7128              1373.0008              1389.5576
 Red. masses --     2.0193                 1.3767                 1.4761
 Frc consts  --     2.2256                 1.5291                 1.6793
 IR Inten    --    33.4934                 1.8385                 1.1226

                    52                     53                     54
                     A                      A                      A
 Frequencies --  1401.5347              1409.0994              1413.0854
 Red. masses --     1.2950                 1.3093                 1.5996
 Frc consts  --     1.4987                 1.5317                 1.8819
 IR Inten    --    11.1545                11.6672                 5.9404

                    55                     56                     57
                     A                      A                      A
 Frequencies --  1421.9194              1476.0305              1481.4316
 Red. masses --     1.2416                 1.0755                 1.0717
 Frc consts  --     1.4791                 1.3805                 1.3858
 IR Inten    --     7.4025                 2.3593                 9.4862

                    58                     59                     60
                     A                      A                      A
 Frequencies --  1483.8651              1492.7879              1498.1848
 Red. masses --     1.0636                 1.0446                 1.0636
 Frc consts  --     1.3798                 1.3716                 1.4065
 IR Inten    --     4.9032                 0.5652                 3.9043

                    61                     62                     63
                     A                      A                      A
 Frequencies --  1502.9697              1507.0992              1508.3556
 Red. masses --     1.1562                 1.0625                 1.0641
 Frc consts  --     1.5389                 1.4219                 1.4264
 IR Inten    --    20.6357                 1.1905                 5.2400

                    64                     65                     66
                     A                      A                      A
 Frequencies --  1514.0266              1520.0327              2984.5116
 Red. masses --     1.0619                 1.3235                 1.0698
 Frc consts  --     1.4342                 1.8017                 5.6142
 IR Inten    --    18.5787                10.8331                 3.0849

                    67                     68                     69
                     A                      A                      A
 Frequencies --  2992.8323              2995.2315              3012.2432
 Red. masses --     1.0707                 1.0715                 1.0364
 Frc consts  --     5.6504                 5.6638                 5.5406
 IR Inten    --     6.9081                42.4749                29.1894

                    70                     71                     72
                     A                      A                      A
 Frequencies --  3018.1485              3023.8134              3027.8801
 Red. masses --     1.0390                 1.0803                 1.0367
 Frc consts  --     5.5763                 5.8198                 5.6000
 IR Inten    --    37.9670                 7.5610                21.0414

                    73                     74                     75
                     A                      A                      A
 Frequencies --  3029.6012              3048.6517              3070.7951
 Red. masses --     1.0774                 1.0883                 1.1003
 Frc consts  --     5.8265                 5.9595                 6.1132
 IR Inten    --    33.1054                 8.1434                 2.4207

                    76                     77                     78
                     A                      A                      A
 Frequencies --  3073.6438              3078.2426              3083.6357
 Red. masses --     1.1041                 1.0995                 1.1017
 Frc consts  --     6.1454                 6.1382                 6.1722
 IR Inten    --    18.7315                91.5982                48.4356

                    79                     80                     81
                     A                      A                      A
 Frequencies --  3084.8791              3091.9914              3110.0533
 Red. masses --     1.0978                 1.0998                 1.1030
 Frc consts  --     6.1552                 6.1949                 6.2856
 IR Inten    --    16.0351                44.3701                19.5679

                    82                     83                     84
                     A                      A                      A
 Frequencies --  3148.0563              3244.2510              3721.5644
 Red. masses --     1.0535                 1.1163                 1.0690
 Frc consts  --     6.1512                 6.9225                 8.7234
 IR Inten    --    11.7044                11.1558                46.6207

 - Thermochemistry -
 -------------------
 Temperature   298.150 Kelvin.  Pressure   1.00000 Atm.
 Atom     1 has atomic number  6 and mass  12.00000

 Molecular mass:   159.13850 amu.
 Principal axes and moments of inertia in atomic units:
                           1         2         3
     Eigenvalues --   955.254184236.699844592.84602
           X            0.99993   0.00817  -0.00818
           Y           -0.00771   0.99849   0.05445
           Z            0.00862  -0.05439   0.99848
 This molecule is an asymmetric top.
 Rotational symmetry number  1.
 Warning -- assumption of classical behavior for rotation
           may cause significant error
 Rotational temperatures (Kelvin)      0.09067     0.02044     0.01886
 Rotational constants (GHZ):           1.88928     0.42598     0.39295
    1 imaginary frequencies ignored.
 Zero-point vibrational energy     694457.5 (Joules/Mol)
                                  165.97933 (Kcal/Mol)
 Warning -- explicit consideration of  22 degrees of freedom as
           vibrations may cause significant error
 Vibrational temperatures:     40.70    58.52    98.21   132.93   171.65
          (Kelvin)            191.28   285.90   308.75   334.33   347.45
                              361.46   373.69   397.71   455.81   546.90
                              560.55   618.19   633.47   650.58   681.21
                              695.44   760.13  1075.62  1137.91  1149.95
                             1192.67  1230.21  1320.08  1337.08  1361.39
                             1366.23  1388.92  1438.03  1461.34  1494.21
                             1509.25  1530.54  1637.70  1645.80  1713.67
                             1764.48  1773.24  1852.16  1885.03  1920.82
                             1933.84  1940.23  1967.83  1975.44  1999.26
                             2016.49  2027.38  2033.11  2045.82  2123.68
                             2131.45  2134.95  2147.79  2155.55  2162.44
                             2168.38  2170.18  2178.34  2186.99  4294.04
                             4306.01  4309.46  4333.94  4342.44  4350.59
                             4356.44  4358.91  4386.32  4418.18  4422.28
                             4428.90  4436.66  4438.45  4448.68  4474.67
                             4529.35  4667.75  5354.49

 Zero-point correction=                           0.264505 (Hartree/Particle)
 Thermal correction to Energy=                    0.279086
 Thermal correction to Enthalpy=                  0.280030
 Thermal correction to Gibbs Free Energy=         0.222061
 Sum of electronic and zero-point Energies=           -504.560293
 Sum of electronic and thermal Energies=              -504.545712
 Sum of electronic and thermal Enthalpies=            -504.544768
 Sum of electronic and thermal Free Energies=         -504.602736

                     E (Thermal)             CV                S
                      KCal/Mol        Cal/Mol-Kelvin    Cal/Mol-Kelvin
 Total                  175.129             53.170            122.005
 Electronic               0.000              0.000              1.377
 Translational            0.889              2.981             41.103
 Rotational               0.889              2.981             31.297
 Vibrational            173.351             47.209             48.227
 Vibration     1          0.593              1.984              5.946
 Vibration     2          0.594              1.981              5.226
 Vibration     3          0.598              1.969              4.203
 Vibration     4          0.602              1.955              3.609
 Vibration     5          0.609              1.933              3.112
 Vibration     6          0.613              1.920              2.903
 Vibration     7          0.637              1.842              2.145
 Vibration     8          0.645              1.819              2.004
 Vibration     9          0.653              1.791              1.861
 Vibration    10          0.658              1.777              1.792
 Vibration    11          0.663              1.761              1.722
 Vibration    12          0.668              1.746              1.664
 Vibration    13          0.678              1.717              1.556
 Vibration    14          0.704              1.642              1.327
 Vibration    15          0.750              1.513              1.039
 Vibration    16          0.758              1.492              1.002
 Vibration    17          0.791              1.406              0.860
 Vibration    18          0.800              1.382              0.826
 Vibration    19          0.811              1.356              0.789
 Vibration    20          0.830              1.309              0.728
 Vibration    21          0.840              1.287              0.701
 Vibration    22          0.883              1.187              0.591

 Optimization completed.
    -- Stationary point found.
 Normal termination of Gaussian 09 at Mon Apr 21 11:14:13 2014.

 -----------------------------------------------------------
 #P Geom=AllCheck Guess=TCheck SCRF=Check CCSD(T)/6-31+G(d')
 -----------------------------------------------------------

 Structure from the checkpoint file:  TS_2a_1.chk
 ---------------------------------------------------
 TS_2a_1 using b3lyp/6-311++g(d,p) to calculate freq
 ---------------------------------------------------
 Charge =  0 Multiplicity = 2

 SCF Done:  E(UHF) =  -501.412168564     A.U. after   23 cycles
 E2 =    -0.1562139731D+01 EUMP2 =    -0.50297430829538D+03
 CCSD(T)
 CCSD(T)= -0.50316188489D+03
 93689\MP4SDQ=-503.095383\CCSD=-503.1047545\CCSD(T)=-503.1618849\S2=1.0
 Normal termination of Gaussian 09 at Tue Apr 22 12:08:43 2014.

 -----------------------------------------------------
 #P Geom=AllCheck Guess=TCheck SCRF=Check MP4SDQ/CBSB4
 -----------------------------------------------------

 Structure from the checkpoint file:  TS_2a_1.chk
 ---------------------------------------------------
 TS_2a_1 using b3lyp/6-311++g(d,p) to calculate freq
 ---------------------------------------------------
 Charge =  0 Multiplicity = 2

 SCF Done:  E(UHF) =  -501.444278322     A.U. after   17 cycles
 E2 =    -0.1687642710D+01 EUMP2 =    -0.50313192103190D+03
 Normal termination of Gaussian 09 at Tue Apr 22 12:33:50 2014.

 ----------------------------------------------------------------------
 #P Geom=AllCheck Guess=TCheck SCRF=Check MP2/CBSB3 CBSExtrap=(NMin=10,
 MinPop)
 ----------------------------------------------------------------------

 Structure from the checkpoint file:  TS_2a_1.chk
 ---------------------------------------------------
 TS_2a_1 using b3lyp/6-311++g(d,p) to calculate freq
 ---------------------------------------------------
 Charge =  0 Multiplicity = 2

                         Standard orientation:
 ---------------------------------------------------------------------
 Center     Atomic      Atomic             Coordinates (Angstroms)
 Number     Number       Type             X           Y           Z
 ---------------------------------------------------------------------
      1          6           0       -3.287435   -0.370012    1.090844
      2          1           0       -3.330565    0.687550    1.360536
      3          1           0       -3.219352   -0.942674    2.021495
      4          1           0       -4.213673   -0.649447    0.584467
      5          6           0       -0.763224   -0.177651    0.815052
      6          1           0       -0.880516    0.883050    1.060213
      7          1           0       -0.625999   -0.697292    1.774201
      8          6           0        0.481654   -0.364708   -0.056620
      9          1           0        0.286052    0.078158   -1.038379
     10          1           0        0.666836   -1.431824   -0.214642
     11          6           0        1.724287    0.286803    0.564062
     12          1           0        1.926600   -0.164873    1.545632
     13          1           0        1.502030    1.343546    0.756294
     14          6           0        3.003015    0.206430   -0.291461
     15          1           0        2.763000    0.615660   -1.282234
     16          6           0        4.112732    1.075060    0.317367
     17          1           0        4.387519    0.714869    1.315063
     18          1           0        5.015154    1.057630   -0.300846
     19          1           0        3.794148    2.116879    0.416092
     20          6           0       -2.138167   -1.750810   -0.627911
     21          1           0       -3.092633   -2.192427   -0.887978
     22          1           0       -1.262559   -2.118224   -1.145881
     23          6           0        3.494357   -1.235766   -0.482926
     24          1           0        4.406117   -1.260962   -1.086946
     25          1           0        3.724655   -1.698312    0.483607
     26          1           0        2.752119   -1.861568   -0.984217
     27          6           0       -2.080428   -0.647404    0.225173
     28          8           0       -2.291370    0.712593   -1.130479
     29          8           0       -2.509854    1.952969   -0.509812
     30          1           0       -3.469888    2.064118   -0.575642
 ---------------------------------------------------------------------

 SCF Done:  E(UHF) =  -501.580982278     A.U. after   19 cycles
 E2 =    -0.1989206967D+01 EUMP2 =    -0.50357018924428D+03
 E2(CBS)=      -2.183895 CBS-Int=       0.065020 OIii=      17.250090

 The electronic state is 2-A.
 Alpha  occ. eigenvalues --  -20.64493 -20.62511 -11.25485 -11.23294 -11.22160
 Alpha  occ. eigenvalues --  -11.21948 -11.21911 -11.21018 -11.20955 -11.20526
 Alpha  occ. eigenvalues --  -11.20469  -1.48972  -1.19029  -1.10095  -1.07842
 Alpha  occ. eigenvalues --   -1.01446  -0.94914  -0.92318  -0.91965  -0.82331
 Alpha  occ. eigenvalues --   -0.75886  -0.73389  -0.71644  -0.68500  -0.64341
 Alpha  occ. eigenvalues --   -0.63500  -0.61892  -0.60141  -0.59832  -0.58311
 Alpha  occ. eigenvalues --   -0.55964  -0.55378  -0.53018  -0.52903  -0.52650
 Alpha  occ. eigenvalues --   -0.51156  -0.49840  -0.49178  -0.48423  -0.47951
 Alpha  occ. eigenvalues --   -0.46971  -0.45179  -0.44656  -0.43357  -0.38157
 Alpha virt. eigenvalues --    0.03919   0.04547   0.05224   0.05449   0.06220
 Alpha virt. eigenvalues --    0.06608   0.06673   0.07670   0.08362   0.08402
 Alpha virt. eigenvalues --    0.08517   0.09378   0.09760   0.11189   0.11455

  Beta  occ. eigenvalues --  -20.62323 -20.61148 -11.26821 -11.22001 -11.21947
  Beta  occ. eigenvalues --  -11.21756 -11.21334 -11.21029 -11.20956 -11.20527
  Beta  occ. eigenvalues --  -11.20469  -1.44697  -1.13848  -1.09141  -1.07048
  Beta  occ. eigenvalues --   -1.01146  -0.92515  -0.92299  -0.90470  -0.82367
  Beta  occ. eigenvalues --   -0.75870  -0.72424  -0.70593  -0.65121  -0.63592
  Beta  occ. eigenvalues --   -0.61813  -0.60966  -0.59276  -0.58943  -0.57982
  Beta  occ. eigenvalues --   -0.55621  -0.53535  -0.52954  -0.52826  -0.52025
  Beta  occ. eigenvalues --   -0.50933  -0.49557  -0.48230  -0.47363  -0.46064
  Beta  occ. eigenvalues --   -0.45186  -0.44650  -0.43384  -0.35219
  Beta virt. eigenvalues --    0.03880   0.04552   0.05171   0.05290   0.06236
  Beta virt. eigenvalues --    0.06575   0.06660   0.06896   0.07702   0.08387
  Beta virt. eigenvalues --    0.08430   0.08994   0.09406   0.09776   0.11256

 Mulliken atomic charges:
              1
     1  C   -0.022220
     2  H    0.070283
     3  H    0.053588
     4  H    0.112832
     5  C   -0.141021
     6  H    0.080071
     7  H    0.080850
     8  C   -0.389525
     9  H    0.101934
    10  H    0.007301
    11  C   -0.714070
    12  H    0.077644
    13  H    0.047500
    14  C    0.956017
    15  H    0.040426
    16  C   -0.401483
    17  H    0.051767
    18  H    0.100455
    19  H    0.057445
    20  C   -0.906975
    21  H    0.129854
    22  H    0.160093
    23  C   -0.602480
    24  H    0.087602
    25  H    0.064016
    26  H    0.068538
    27  C    0.824839
    28  O   -0.057587
    29  O   -0.184606
    30  H    0.246909
 Sum of Mulliken atomic charges =   0.00000

 Dipole moment (field-independent basis, Debye):
    X=             -1.3894    Y=             -0.7924    Z=              0.8750  Tot=              1.8232
 Quadrupole moment (field-independent basis, Debye-Ang):
   XX=            -63.2320   YY=            -72.0216   ZZ=            -73.1497
   XY=             -1.3498   XZ=             -1.8237   YZ=              0.9986

    1 imaginary frequencies ignored.
 Normal termination of Gaussian 09 at Tue Apr 22 13:52:33 2014.
