 Gaussian 09, Revision C.01,
 Gaussian 09:  EM64L-G09RevC.01 23-Sep-2011

 -------------------------------
 #p cbs-qb3 opt=(ts,calcfc) freq
 -------------------------------

 (Enter /usr/caen/gaussian-09revc/g09/l101.exe)
 -----------------------------------
 2-ts16 using cbs-qb3 to cal. energy
 -----------------------------------
 Charge =  0 Multiplicity = 2

 SCF Done:  E(UB3LYP) =  -504.815975050     A.U. after   21 cycles
 SCF Done:  E(UB3LYP) =  -504.816092702     A.U. after   16 cycles
 SCF Done:  E(UB3LYP) =  -504.816127710     A.U. after   15 cycles
 SCF Done:  E(UB3LYP) =  -504.816130152     A.U. after   12 cycles
 SCF Done:  E(UB3LYP) =  -504.816130165     A.U. after    9 cycles
 Optimization completed.
    -- Stationary point found.
 Normal termination of Gaussian 09 at Wed Mar 26 10:30:10 2014.

 ---------------------------------------------------------
 #P Geom=AllCheck Guess=TCheck SCRF=Check B3LYP/CBSB7 Freq
 ---------------------------------------------------------

 Structure from the checkpoint file:  2-ts16.chk
 -----------------------------------
 2-ts16 using cbs-qb3 to cal. energy
 -----------------------------------
 Charge =  0 Multiplicity = 2

 SCF Done:  E(UB3LYP) =  -504.816130165     A.U. after    1 cycles

  Exact polarizability: 171.103  -2.697 115.714  10.941  -3.150 105.229
 Approx polarizability: 226.749 -17.111 169.316  26.359 -12.134 162.958

 ******    1 imaginary frequencies (negative Signs) ******

                     1                      2                      3
                     A                      A                      A
 Frequencies --  -635.3267                48.1986                80.0339
 Red. masses --    11.5386                 3.1196                 3.2954
 Frc consts  --     2.7441                 0.0043                 0.0124
 IR Inten    --   748.3461                 0.2785                 1.1797

                     4                      5                      6
                     A                      A                      A
 Frequencies --   144.7992               165.9397               192.0709
 Red. masses --     2.4353                 2.8321                 2.5212
 Frc consts  --     0.0301                 0.0459                 0.0548
 IR Inten    --     4.2093                 5.6646                 0.3832

                     7                      8                      9
                     A                      A                      A
 Frequencies --   217.4709               231.4064               236.4010
 Red. masses --     1.5556                 1.3385                 1.2237
 Frc consts  --     0.0433                 0.0422                 0.0403
 IR Inten    --    32.5192                32.7846                12.1433

                    10                     11                     12
                     A                      A                      A
 Frequencies --   244.7738               252.7133               270.2012
 Red. masses --     1.6503                 1.6358                 1.3476
 Frc consts  --     0.0583                 0.0616                 0.0580
 IR Inten    --    20.4656                 0.5520                10.8824

                    13                     14                     15
                     A                      A                      A
 Frequencies --   285.0155               300.7900               365.7238
 Red. masses --     2.5901                 2.6613                 2.6669
 Frc consts  --     0.1240                 0.1419                 0.2102
 IR Inten    --     7.1741                 9.2322                 2.9264

                    16                     17                     18
                     A                      A                      A
 Frequencies --   375.2150               396.7595               419.1538
 Red. masses --     2.5014                 2.7511                 2.2326
 Frc consts  --     0.2075                 0.2552                 0.2311
 IR Inten    --     1.3638                20.0696                 0.2589

                    19                     20                     21
                     A                      A                      A
 Frequencies --   447.5255               474.7561               502.2178
 Red. masses --     1.9066                 3.1636                 2.0189
 Frc consts  --     0.2250                 0.4201                 0.3000
 IR Inten    --    26.9922                 1.8238                 0.5042

                    22                     23                     24
                     A                      A                      A
 Frequencies --   533.4866               586.3389               707.0573
 Red. masses --     2.0173                 1.5827                 2.9420
 Frc consts  --     0.3383                 0.3206                 0.8666
 IR Inten    --     8.1773                 9.3174                 7.0740

                    25                     26                     27
                     A                      A                      A
 Frequencies --   770.4147               818.0809               845.8085
 Red. masses --     2.3029                 1.5473                 1.8412
 Frc consts  --     0.8053                 0.6101                 0.7761
 IR Inten    --     2.7194                 0.1082                 0.8506

                    28                     29                     30
                     A                      A                      A
 Frequencies --   861.9487               873.3269               923.0640
 Red. masses --     1.6358                 2.0662                 1.6794
 Frc consts  --     0.7160                 0.9285                 0.8431
 IR Inten    --     7.5535                12.7908                 0.8582

                    31                     32                     33
                     A                      A                      A
 Frequencies --   929.1806               951.3820               963.6664
 Red. masses --     1.5335                 1.5463                 1.5004
 Frc consts  --     0.7801                 0.8246                 0.8210
 IR Inten    --     1.0188                 4.6815                 2.5571

                    34                     35                     36
                     A                      A                      A
 Frequencies --   982.9445               993.5326              1025.6599
 Red. masses --     1.9110                 1.6452                 1.4374
 Frc consts  --     1.0879                 0.9568                 0.8909
 IR Inten    --     2.4448                 1.2839                 2.1856

                    37                     38                     39
                     A                      A                      A
 Frequencies --  1044.3797              1079.7186              1087.6500
 Red. masses --     2.6001                 1.1772                 1.9342
 Frc consts  --     1.6709                 0.8086                 1.3481
 IR Inten    --     3.8810                57.4967                 7.9202

                    40                     41                     42
                     A                      A                      A
 Frequencies --  1116.2987              1143.9923              1171.9909
 Red. masses --     1.6067                 1.6799                 1.9710
 Frc consts  --     1.1797                 1.2953                 1.5951
 IR Inten    --     2.3380                12.3954                14.3671

                    43                     44                     45
                     A                      A                      A
 Frequencies --  1201.8533              1238.8933              1257.5902
 Red. masses --     2.4791                 2.0566                 1.8063
 Frc consts  --     2.1098                 1.8598                 1.6832
 IR Inten    --    12.1053                 6.9937                 2.7039

                    46                     47                     48
                     A                      A                      A
 Frequencies --  1275.6415              1303.7688              1314.1758
 Red. masses --     1.2016                 1.2640                 1.2613
 Frc consts  --     1.1520                 1.2659                 1.2834
 IR Inten    --     9.3991                 7.7489                 1.2550

                    49                     50                     51
                     A                      A                      A
 Frequencies --  1362.9160              1369.3168              1388.6875
 Red. masses --     1.4251                 1.3249                 1.4332
 Frc consts  --     1.5596                 1.4636                 1.6284
 IR Inten    --     0.9174                10.1286                 1.3201

                    52                     53                     54
                     A                      A                      A
 Frequencies --  1392.7026              1395.4212              1405.4453
 Red. masses --     1.3776                 1.3003                 1.2417
 Frc consts  --     1.5743                 1.4918                 1.4451
 IR Inten    --     3.5857                18.9795                 2.6474

                    55                     56                     57
                     A                      A                      A
 Frequencies --  1412.5013              1468.5003              1473.9848
 Red. masses --     1.2331                 1.1502                 1.0596
 Frc consts  --     1.4495                 1.4615                 1.3564
 IR Inten    --    14.0140                 1.5689                 0.5747

                    58                     59                     60
                     A                      A                      A
 Frequencies --  1484.6954              1490.1855              1494.8801
 Red. masses --     1.0813                 1.0801                 1.0599
 Frc consts  --     1.4043                 1.4131                 1.3954
 IR Inten    --     4.8845                 1.0638                 1.0696

                    61                     62                     63
                     A                      A                      A
 Frequencies --  1496.2228              1497.0336              1500.2352
 Red. masses --     1.0661                 1.0507                 1.0540
 Frc consts  --     1.4062                 1.3874                 1.3977
 IR Inten    --     9.8531                10.3567                 9.0874

                    64                     65                     66
                     A                      A                      A
 Frequencies --  1503.4673              1522.1394              2988.5635
 Red. masses --     1.0815                 1.0527                 1.0746
 Frc consts  --     1.4403                 1.4370                 5.6549
 IR Inten    --     4.4895                 7.2052                 7.6574

                    67                     68                     69
                     A                      A                      A
 Frequencies --  2999.4687              3015.9815              3017.6383
 Red. masses --     1.0711                 1.0357                 1.0674
 Frc consts  --     5.6775                 5.5505                 5.7267
 IR Inten    --    27.4048                58.8069                 7.8595

                    70                     71                     72
                     A                      A                      A
 Frequencies --  3028.2910              3031.0106              3039.9627
 Red. masses --     1.0654                 1.0403                 1.0635
 Frc consts  --     5.7564                 5.6309                 5.7907
 IR Inten    --    12.6857                35.0257                35.5641

                    73                     74                     75
                     A                      A                      A
 Frequencies --  3043.3996              3061.4588              3067.4577
 Red. masses --     1.0643                 1.1011                 1.0945
 Frc consts  --     5.8083                 6.0806                 6.0678
 IR Inten    --    52.4639                21.3895                38.4153

                    76                     77                     78
                     A                      A                      A
 Frequencies --  3079.7848              3092.3007              3093.8188
 Red. masses --     1.1014                 1.1019                 1.1011
 Frc consts  --     6.1549                 6.2079                 6.2096
 IR Inten    --    39.9221                32.0667                33.2253

                    79                     80                     81
                     A                      A                      A
 Frequencies --  3100.6397              3126.1329              3133.2587
 Red. masses --     1.1000                 1.0997                 1.0532
 Frc consts  --     6.2306                 6.3321                 6.0920
 IR Inten    --    46.8979                 9.0376                15.0081

                    82                     83                     84
                     A                      A                      A
 Frequencies --  3142.1366              3230.3988              3802.2620
 Red. masses --     1.0982                 1.1167                 1.0682
 Frc consts  --     6.3883                 6.8660                 9.0986
 IR Inten    --    12.2741                11.3599                39.5663

 - Thermochemistry -
 -------------------
 Temperature   298.150 Kelvin.  Pressure   1.00000 Atm.
 Atom     1 has atomic number  6 and mass  12.00000

 Molecular mass:   159.13850 amu.
 Principal axes and moments of inertia in atomic units:
                           1         2         3
     Eigenvalues --  1124.244102539.736613043.88718
           X            0.99973   0.02316  -0.00283
           Y           -0.02313   0.99966   0.01178
           Z            0.00310  -0.01172   0.99993
 This molecule is an asymmetric top.
 Rotational symmetry number  1.
 Warning -- assumption of classical behavior for rotation
           may cause significant error
 Rotational temperatures (Kelvin)      0.07704     0.03410     0.02846
 Rotational constants (GHZ):           1.60529     0.71060     0.59291
    1 imaginary frequencies ignored.
 Zero-point vibrational energy     696258.4 (Joules/Mol)
                                  166.40975 (Kcal/Mol)
 Warning -- explicit consideration of  22 degrees of freedom as
           vibrations may cause significant error
 Vibrational temperatures:     69.35   115.15   208.33   238.75   276.35
          (Kelvin)            312.89   332.94   340.13   352.17   363.60
                              388.76   410.07   432.77   526.19   539.85
                              570.85   603.07   643.89   683.07   722.58
                              767.57   843.61  1017.30  1108.45  1177.03
                             1216.93  1240.15  1256.52  1328.08  1336.88
                             1368.82  1386.50  1414.24  1429.47  1475.69
                             1502.63  1553.47  1564.88  1606.10  1645.95
                             1686.23  1729.20  1782.49  1809.39  1835.36
                             1875.83  1890.80  1960.93  1970.14  1998.01
                             2003.79  2007.70  2022.12  2032.27  2112.84
                             2120.73  2136.14  2144.04  2150.80  2152.73
                             2153.89  2158.50  2163.15  2190.02  4299.87
                             4315.56  4339.32  4341.70  4357.03  4360.94
                             4373.82  4378.77  4404.75  4413.38  4431.12
                             4449.13  4451.31  4461.12  4497.80  4508.05
                             4520.83  4647.82  5470.60

 Zero-point correction=                           0.265191 (Hartree/Particle)
 Thermal correction to Energy=                    0.278791
 Thermal correction to Enthalpy=                  0.279735
 Thermal correction to Gibbs Free Energy=         0.226073
 Sum of electronic and zero-point Energies=           -504.550939
 Sum of electronic and thermal Energies=              -504.537340
 Sum of electronic and thermal Enthalpies=            -504.536395
 Sum of electronic and thermal Free Energies=         -504.590057

                     E (Thermal)             CV                S
                      KCal/Mol        Cal/Mol-Kelvin    Cal/Mol-Kelvin
 Total                  174.944             52.613            112.940
 Electronic               0.000              0.000              1.377
 Translational            0.889              2.981             41.103
 Rotational               0.889              2.981             30.542
 Vibrational            173.166             46.652             39.917
 Vibration     1          0.595              1.978              4.890
 Vibration     2          0.600              1.963              3.890
 Vibration     3          0.616              1.908              2.739
 Vibration     4          0.624              1.884              2.481
 Vibration     5          0.634              1.851              2.208
 Vibration     6          0.646              1.814              1.980
 Vibration     7          0.653              1.793              1.868
 Vibration     8          0.655              1.785              1.830
 Vibration     9          0.660              1.771              1.768
 Vibration    10          0.664              1.758              1.712
 Vibration    11          0.674              1.728              1.595
 Vibration    12          0.683              1.701              1.503
 Vibration    13          0.693              1.672              1.413
 Vibration    14          0.739              1.543              1.098
 Vibration    15          0.746              1.523              1.058
 Vibration    16          0.763              1.477              0.975
 Vibration    17          0.782              1.429              0.895
 Vibration    18          0.807              1.366              0.803
 Vibration    19          0.831              1.306              0.724
 Vibration    20          0.858              1.245              0.653
 Vibration    21          0.888              1.176              0.579
 Vibration    22          0.943              1.061              0.474

 Optimization completed.
    -- Stationary point found.
 Normal termination of Gaussian 09 at Wed Mar 26 10:41:02 2014.

 -----------------------------------------------------------
 #P Geom=AllCheck Guess=TCheck SCRF=Check CCSD(T)/6-31+G(d')
 -----------------------------------------------------------

 Structure from the checkpoint file:  2-ts16.chk
 -----------------------------------
 2-ts16 using cbs-qb3 to cal. energy
 -----------------------------------
 Charge =  0 Multiplicity = 2

 SCF Done:  E(UHF) =  -501.411738138     A.U. after   25 cycles
 E2 =    -0.1539477844D+01 EUMP2 =    -0.50295121598175D+03
 CCSD(T)
 CCSD(T)= -0.50316162493D+03
 7\MP4SDQ=-503.080768\CCSD=-503.1021193\CCSD(T)=-503.1616249\S2=1.27854
 Normal termination of Gaussian 09 at Thu Mar 27 00:41:52 2014.

 -----------------------------------------------------
 #P Geom=AllCheck Guess=TCheck SCRF=Check MP4SDQ/CBSB4
 -----------------------------------------------------

 Structure from the checkpoint file:  2-ts16.chk
 -----------------------------------
 2-ts16 using cbs-qb3 to cal. energy
 -----------------------------------
 Charge =  0 Multiplicity = 2

 SCF Done:  E(UHF) =  -501.443760972     A.U. after   20 cycles
 E2 =    -0.1665030769D+01 EUMP2 =    -0.50310879174073D+03
 Normal termination of Gaussian 09 at Thu Mar 27 01:05:26 2014.

 ----------------------------------------------------------------------
 #P Geom=AllCheck Guess=TCheck SCRF=Check MP2/CBSB3 CBSExtrap=(NMin=10,
 MinPop)
 ----------------------------------------------------------------------

 Structure from the checkpoint file:  2-ts16.chk
 -----------------------------------
 2-ts16 using cbs-qb3 to cal. energy
 -----------------------------------
 Charge =  0 Multiplicity = 2

                         Standard orientation:
 ---------------------------------------------------------------------
 Center     Atomic      Atomic             Coordinates (Angstroms)
 Number     Number       Type             X           Y           Z
 ---------------------------------------------------------------------
      1          6           0        1.243924    1.075927    0.739214
      2          6           0        2.131469    0.351542   -0.217753
      3          6           0        1.993186   -1.175627   -0.117775
      4          6           0        0.610982   -1.749015   -0.467916
      5          6           0       -1.516181   -0.297137    0.160813
      6          6           0       -0.525411   -1.427864    0.529389
      7          1           0        1.109505    0.687959    1.743180
      8          1           0        1.847222    0.657396   -1.233685
      9          1           0        2.268102   -1.490296    0.898418
     10          1           0        0.333219   -1.423886   -1.475034
     11          1           0        1.127678    2.147150    0.635985
     12          1           0        2.733490   -1.631465   -0.785124
     13          1           0        0.715460   -2.837167   -0.527157
     14          1           0       -0.104339   -1.223571    1.517617
     15          1           0       -1.149461   -2.319506    0.655756
     16          6           0       -2.447796   -0.013837    1.343821
     17          1           0       -3.053801   -0.892025    1.585859
     18          1           0       -3.112653    0.814782    1.099117
     19          1           0       -1.866739    0.260730    2.227641
     20          6           0       -2.321914   -0.683823   -1.088257
     21          1           0       -2.856856   -1.621873   -0.914685
     22          1           0       -3.044122    0.095410   -1.323092
     23          1           0       -1.669324   -0.818120   -1.953761
     24          6           0        3.605963    0.778611   -0.009646
     25          1           0        3.720846    1.861430   -0.103010
     26          1           0        3.961978    0.486412    0.982907
     27          1           0        4.252041    0.303309   -0.754857
     28          8           0       -0.734483    0.901464   -0.115087
     29          8           0       -1.824044    2.049429   -0.637127
     30          1           0       -1.389365    2.183525   -1.489703
 ---------------------------------------------------------------------

 SCF Done:  E(UHF) =  -501.577193440     A.U. after   20 cycles
 E2 =    -0.1966518448D+01 EUMP2 =    -0.50354371188759D+03
 E2(CBS)=      -2.159520 CBS-Int=       0.064196 OIii=      17.101053

 The electronic state is 2-A.
 Alpha  occ. eigenvalues --  -20.60761 -20.58282 -11.28765 -11.22163 -11.21866
 Alpha  occ. eigenvalues --  -11.21815 -11.21388 -11.21165 -11.20974 -11.20739
 Alpha  occ. eigenvalues --  -11.20621  -1.40208  -1.24593  -1.09399  -1.06167
 Alpha  occ. eigenvalues --   -1.00418  -0.93659  -0.92509  -0.91732  -0.82775
 Alpha  occ. eigenvalues --   -0.75813  -0.74879  -0.68122  -0.65805  -0.63414
 Alpha  occ. eigenvalues --   -0.62146  -0.60416  -0.59577  -0.59010  -0.58321
 Alpha  occ. eigenvalues --   -0.55565  -0.54712  -0.53623  -0.52909  -0.52493
 Alpha  occ. eigenvalues --   -0.51633  -0.50473  -0.49559  -0.48451  -0.47532
 Alpha  occ. eigenvalues --   -0.46056  -0.45105  -0.43990  -0.42991  -0.31328
 Alpha virt. eigenvalues --    0.03924   0.04846   0.05015   0.05342   0.06617
 Alpha virt. eigenvalues --    0.06742   0.06929   0.07400   0.07537   0.09160
 Alpha virt. eigenvalues --    0.09255   0.09412   0.09749   0.10171   0.10619

  Beta  occ. eigenvalues --  -20.60623 -20.57559 -11.28582 -11.22283 -11.22142
  Beta  occ. eigenvalues --  -11.21811 -11.21349 -11.21025 -11.20640 -11.20503
  Beta  occ. eigenvalues --  -11.18716  -1.39862  -1.21833  -1.08962  -1.06241
  Beta  occ. eigenvalues --   -1.00175  -0.93717  -0.92014  -0.87831  -0.82014
  Beta  occ. eigenvalues --   -0.74898  -0.73714  -0.68367  -0.64835  -0.63566
  Beta  occ. eigenvalues --   -0.61505  -0.60062  -0.59093  -0.58111  -0.57249
  Beta  occ. eigenvalues --   -0.54908  -0.54374  -0.53259  -0.52123  -0.51664
  Beta  occ. eigenvalues --   -0.51609  -0.50814  -0.49059  -0.47201  -0.46026
  Beta  occ. eigenvalues --   -0.45674  -0.44528  -0.43880  -0.43077
  Beta virt. eigenvalues --    0.03889   0.04802   0.04934   0.05283   0.06586
  Beta virt. eigenvalues --    0.06758   0.06902   0.07345   0.07532   0.09176
  Beta virt. eigenvalues --    0.09279   0.09353   0.09733   0.10136   0.10654

 Mulliken atomic charges:
              1
     1  C   -0.933350
     2  C    1.067422
     3  C   -0.594953
     4  C    0.130820
     5  C    0.322571
     6  C   -0.148459
     7  H    0.117810
     8  H    0.048451
     9  H    0.088266
    10  H    0.037638
    11  H    0.110893
    12  H    0.067140
    13  H    0.078951
    14  H    0.089412
    15  H    0.108890
    16  C   -0.366944
    17  H    0.064929
    18  H    0.115137
    19  H    0.064794
    20  C   -0.580887
    21  H    0.073932
    22  H    0.101468
    23  H    0.072787
    24  C   -0.411584
    25  H    0.076990
    26  H    0.058745
    27  H    0.060019
    28  O    0.088273
    29  O   -0.268957
    30  H    0.259795
 Sum of Mulliken atomic charges =   0.00000

 Dipole moment (field-independent basis, Debye):
    X=              0.0811    Y=             -1.3295    Z=             -1.0050  Tot=              1.6686
 Quadrupole moment (field-independent basis, Debye-Ang):
   XX=            -73.8026   YY=            -72.1312   ZZ=            -68.2354
   XY=              2.3361   XZ=              0.5639   YZ=             -3.5980

    1 imaginary frequencies ignored.
 Normal termination of Gaussian 09 at Thu Mar 27 02:22:18 2014.
