 Gaussian 09, Revision C.01,
 Gaussian 09:  EM64L-G09RevC.01 23-Sep-2011

 -------------------------------
 #p cbs-qb3 opt=(TS,calcfc) freq
 -------------------------------

 (Enter /usr/caen/gaussian-09revc/g09/l101.exe)
 ----------------------------------------------------
 TS_2d_24 using b3lyp/6-311++g(d,p) to calculate freq
 ----------------------------------------------------
 Charge =  0 Multiplicity = 2

 SCF Done:  E(UB3LYP) =  -504.828546235     A.U. after   22 cycles
 SCF Done:  E(UB3LYP) =  -504.828699711     A.U. after   14 cycles
 SCF Done:  E(UB3LYP) =  -504.828699706     A.U. after   11 cycles
 SCF Done:  E(UB3LYP) =  -504.828699769     A.U. after    9 cycles
 Optimization completed.
    -- Stationary point found.
 Normal termination of Gaussian 09 at Tue Apr 29 03:50:38 2014.

 ---------------------------------------------------------
 #P Geom=AllCheck Guess=TCheck SCRF=Check B3LYP/CBSB7 Freq
 ---------------------------------------------------------

 Structure from the checkpoint file:  TS_2d_24.chk
 ----------------------------------------------------
 TS_2d_24 using b3lyp/6-311++g(d,p) to calculate freq
 ----------------------------------------------------
 Charge =  0 Multiplicity = 2

 SCF Done:  E(UB3LYP) =  -504.828699769     A.U. after    1 cycles

  Exact polarizability: 171.134 -13.210 118.531  -3.718   2.657  98.840
 Approx polarizability: 221.975 -37.443 180.437  -7.106   4.412 146.797

 ******    1 imaginary frequencies (negative Signs) ******

                     1                      2                      3
                     A                      A                      A
 Frequencies --  -727.0635                38.0102                46.5614
 Red. masses --    12.8633                 2.9609                 2.9224
 Frc consts  --     4.0063                 0.0025                 0.0037
 IR Inten    --   722.9388                 0.3866                 0.0673

                     4                      5                      6
                     A                      A                      A
 Frequencies --    59.6461               105.4168               161.4684
 Red. masses --     3.3284                 2.6812                 1.9653
 Frc consts  --     0.0070                 0.0176                 0.0302
 IR Inten    --     0.8163                 0.5769                35.3115

                     7                      8                      9
                     A                      A                      A
 Frequencies --   180.3577               197.7791               230.4631
 Red. masses --     3.6289                 1.5523                 1.1503
 Frc consts  --     0.0695                 0.0358                 0.0360
 IR Inten    --    25.2529                51.1903                 1.6205

                    10                     11                     12
                     A                      A                      A
 Frequencies --   230.9436               247.2999               258.4748
 Red. masses --     1.1285                 2.2808                 1.1014
 Frc consts  --     0.0355                 0.0822                 0.0434
 IR Inten    --     2.0217                 0.6108                 0.2250

                    13                     14                     15
                     A                      A                      A
 Frequencies --   262.3200               279.9064               332.5317
 Red. masses --     1.1866                 2.2114                 2.7414
 Frc consts  --     0.0481                 0.1021                 0.1786
 IR Inten    --     0.2795                 0.4273                12.2329

                    16                     17                     18
                     A                      A                      A
 Frequencies --   356.7819               378.4280               398.8738
 Red. masses --     2.6764                 2.6982                 2.3150
 Frc consts  --     0.2007                 0.2277                 0.2170
 IR Inten    --     1.6290                10.7670                 0.4911

                    19                     20                     21
                     A                      A                      A
 Frequencies --   418.1035               445.4161               465.3238
 Red. masses --     1.8495                 2.4545                 2.7021
 Frc consts  --     0.1905                 0.2869                 0.3447
 IR Inten    --     1.0979                 0.1709                 6.9464

                    22                     23                     24
                     A                      A                      A
 Frequencies --   483.1550               591.6860               744.3051
 Red. masses --     2.8787                 2.5411                 1.9688
 Frc consts  --     0.3959                 0.5242                 0.6426
 IR Inten    --     3.5693                13.7350                 2.4351

                    25                     26                     27
                     A                      A                      A
 Frequencies --   770.1943               806.8433               858.1226
 Red. masses --     2.4264                 2.3804                 1.6106
 Frc consts  --     0.8480                 0.9130                 0.6988
 IR Inten    --    15.5036                 1.0228                 2.3137

                    28                     29                     30
                     A                      A                      A
 Frequencies --   879.6832               895.4427               925.6143
 Red. masses --     2.3927                 2.1183                 1.7058
 Frc consts  --     1.0909                 1.0007                 0.8611
 IR Inten    --    18.5235                 1.9290                 2.1153

                    31                     32                     33
                     A                      A                      A
 Frequencies --   931.9774               944.7715               965.3806
 Red. masses --     1.2404                 1.6323                 1.4836
 Frc consts  --     0.6348                 0.8584                 0.8147
 IR Inten    --     0.9636                 0.2356                 0.1012

                    34                     35                     36
                     A                      A                      A
 Frequencies --   974.1498               984.6139              1021.7158
 Red. masses --     1.8180                 1.4936                 1.4101
 Frc consts  --     1.0165                 0.8531                 0.8673
 IR Inten    --     9.0319                 5.5560                 0.9932

                    37                     38                     39
                     A                      A                      A
 Frequencies --  1068.4202              1087.3355              1114.9787
 Red. masses --     1.1663                 1.2619                 2.2472
 Frc consts  --     0.7844                 0.8790                 1.6460
 IR Inten    --    65.6366                 4.9401                 0.9856

                    40                     41                     42
                     A                      A                      A
 Frequencies --  1151.9430              1167.7550              1183.8196
 Red. masses --     2.1716                 2.0925                 1.8123
 Frc consts  --     1.6978                 1.6812                 1.4964
 IR Inten    --     0.6592                26.7804                11.8024

                    43                     44                     45
                     A                      A                      A
 Frequencies --  1202.1095              1247.8529              1256.6849
 Red. masses --     2.0534                 2.0475                 1.5506
 Frc consts  --     1.7483                 1.8785                 1.4428
 IR Inten    --     7.0057                 3.7161                 7.5367

                    46                     47                     48
                     A                      A                      A
 Frequencies --  1274.7565              1292.2660              1314.8294
 Red. masses --     1.8327                 1.3199                 1.4635
 Frc consts  --     1.7547                 1.2986                 1.4907
 IR Inten    --    25.6819                 1.1927                15.6288

                    49                     50                     51
                     A                      A                      A
 Frequencies --  1360.6325              1365.2838              1396.8679
 Red. masses --     1.3338                 1.3650                 1.3275
 Frc consts  --     1.4548                 1.4991                 1.5261
 IR Inten    --     1.8988                 3.1665                23.8992

                    52                     53                     54
                     A                      A                      A
 Frequencies --  1402.3423              1411.3014              1416.4508
 Red. masses --     1.2601                 1.2443                 1.4739
 Frc consts  --     1.4600                 1.4602                 1.7423
 IR Inten    --     9.6114                19.5456                 7.2088

                    55                     56                     57
                     A                      A                      A
 Frequencies --  1423.1483              1472.7308              1476.5776
 Red. masses --     1.2865                 1.0563                 1.1108
 Frc consts  --     1.5352                 1.3498                 1.4270
 IR Inten    --     3.3222                 0.7916                 5.2038

                    58                     59                     60
                     A                      A                      A
 Frequencies --  1487.7746              1490.0273              1491.9135
 Red. masses --     1.0889                 1.0507                 1.0599
 Frc consts  --     1.4201                 1.3744                 1.3900
 IR Inten    --     3.8013                 0.5935                 7.1621

                    61                     62                     63
                     A                      A                      A
 Frequencies --  1496.0471              1497.4519              1506.3994
 Red. masses --     1.0554                 1.0525                 1.0504
 Frc consts  --     1.3917                 1.3905                 1.4044
 IR Inten    --     3.3070                 2.4886                 7.0522

                    64                     65                     66
                     A                      A                      A
 Frequencies --  1510.9905              1516.8252              2996.1405
 Red. masses --     1.0487                 1.0529                 1.0608
 Frc consts  --     1.4106                 1.4273                 5.6105
 IR Inten    --    13.9539                 5.2424                14.1734

                    67                     68                     69
                     A                      A                      A
 Frequencies --  2997.9841              3014.2098              3014.9211
 Red. masses --     1.0823                 1.0531                 1.0442
 Frc consts  --     5.7313                 5.6374                 5.5922
 IR Inten    --    13.2311                 3.1903                47.7366

                    70                     71                     72
                     A                      A                      A
 Frequencies --  3019.3616              3026.4229              3033.5395
 Red. masses --     1.0373                 1.0379                 1.0386
 Frc consts  --     5.5718                 5.6010                 5.6311
 IR Inten    --    29.1693                20.9831                25.3291

                    73                     74                     75
                     A                      A                      A
 Frequencies --  3041.6816              3074.3822              3075.8536
 Red. masses --     1.0995                 1.1005                 1.1001
 Frc consts  --     5.9936                 6.1284                 6.1322
 IR Inten    --    21.1977                 5.4163                14.0428

                    76                     77                     78
                     A                      A                      A
 Frequencies --  3081.4621              3085.1743              3087.6123
 Red. masses --     1.0999                 1.1022                 1.1015
 Frc consts  --     6.1534                 6.1814                 6.1867
 IR Inten    --    75.6987                20.7554                67.1481

                    79                     80                     81
                     A                      A                      A
 Frequencies --  3088.8795              3094.6286              3124.4024
 Red. masses --     1.1005                 1.1009                 1.1002
 Frc consts  --     6.1862                 6.2119                 6.3277
 IR Inten    --    25.5282                38.9598                 2.2960

                    82                     83                     84
                     A                      A                      A
 Frequencies --  3128.5303              3156.4979              3808.5012
 Red. masses --     1.0994                 1.0876                 1.0681
 Frc consts  --     6.3397                 6.3844                 9.1280
 IR Inten    --    18.2755                17.9776                45.3058

 - Thermochemistry -
 -------------------
 Temperature   298.150 Kelvin.  Pressure   1.00000 Atm.
 Atom     1 has atomic number  6 and mass  12.00000

 Molecular mass:   159.13850 amu.
 Principal axes and moments of inertia in atomic units:
                           1         2         3
     Eigenvalues --   894.742023698.707814070.55471
           X            0.99990   0.01437  -0.00054
           Y           -0.01436   0.99965   0.02202
           Z            0.00085  -0.02201   0.99976
 This molecule is an asymmetric top.
 Rotational symmetry number  1.
 Warning -- assumption of classical behavior for rotation
           may cause significant error
 Rotational temperatures (Kelvin)      0.09680     0.02342     0.02128
 Rotational constants (GHZ):           2.01705     0.48794     0.44336
    1 imaginary frequencies ignored.
 Zero-point vibrational energy     693280.6 (Joules/Mol)
                                  165.69804 (Kcal/Mol)
 Warning -- explicit consideration of  22 degrees of freedom as
           vibrations may cause significant error
 Vibrational temperatures:     54.69    66.99    85.82   151.67   232.32
          (Kelvin)            259.49   284.56   331.58   332.28   355.81
                              371.89   377.42   402.72   478.44   513.33
                              544.47   573.89   601.56   640.85   669.50
                              695.15   851.30  1070.89  1108.14  1160.87
                             1234.65  1265.67  1288.34  1331.75  1340.91
                             1359.31  1388.97  1401.58  1416.64  1470.02
                             1537.22  1564.43  1604.20  1657.39  1680.14
                             1703.25  1729.57  1795.38  1808.09  1834.09
                             1859.28  1891.74  1957.64  1964.34  2009.78
                             2017.66  2030.55  2037.95  2047.59  2118.93
                             2124.46  2140.57  2143.81  2146.53  2152.48
                             2154.50  2167.37  2173.98  2182.37  4310.77
                             4313.43  4336.77  4337.79  4344.18  4354.34
                             4364.58  4376.30  4423.34  4425.46  4433.53
                             4438.87  4442.38  4444.20  4452.47  4495.31
                             4501.25  4541.49  5479.58

 Zero-point correction=                           0.264057 (Hartree/Particle)
 Thermal correction to Energy=                    0.278459
 Thermal correction to Enthalpy=                  0.279404
 Thermal correction to Gibbs Free Energy=         0.222545
 Sum of electronic and zero-point Energies=           -504.564643
 Sum of electronic and thermal Energies=              -504.550240
 Sum of electronic and thermal Enthalpies=            -504.549296
 Sum of electronic and thermal Free Energies=         -504.606155

                     E (Thermal)             CV                S
                      KCal/Mol        Cal/Mol-Kelvin    Cal/Mol-Kelvin
 Total                  174.736             53.311            119.669
 Electronic               0.000              0.000              1.377
 Translational            0.889              2.981             41.103
 Rotational               0.889              2.981             30.978
 Vibrational            172.958             47.349             46.211
 Vibration     1          0.594              1.982              5.360
 Vibration     2          0.595              1.979              4.958
 Vibration     3          0.597              1.974              4.469
 Vibration     4          0.605              1.945              3.352
 Vibration     5          0.622              1.890              2.533
 Vibration     6          0.629              1.866              2.325
 Vibration     7          0.637              1.843              2.154
 Vibration     8          0.652              1.794              1.875
 Vibration     9          0.653              1.794              1.872
 Vibration    10          0.661              1.767              1.750
 Vibration    11          0.667              1.748              1.672
 Vibration    12          0.670              1.742              1.646
 Vibration    13          0.680              1.711              1.534
 Vibration    14          0.714              1.611              1.248
 Vibration    15          0.732              1.561              1.136
 Vibration    16          0.749              1.516              1.045
 Vibration    17          0.765              1.473              0.967
 Vibration    18          0.781              1.431              0.898
 Vibration    19          0.805              1.371              0.810
 Vibration    20          0.823              1.327              0.751
 Vibration    21          0.839              1.287              0.702
 Vibration    22          0.949              1.049              0.464

 Optimization completed.
    -- Stationary point found.
 Normal termination of Gaussian 09 at Tue Apr 29 04:00:38 2014.

 -----------------------------------------------------------
 #P Geom=AllCheck Guess=TCheck SCRF=Check CCSD(T)/6-31+G(d')
 -----------------------------------------------------------

 Structure from the checkpoint file:  TS_2d_24.chk
 ----------------------------------------------------
 TS_2d_24 using b3lyp/6-311++g(d,p) to calculate freq
 ----------------------------------------------------
 Charge =  0 Multiplicity = 2

 SCF Done:  E(UHF) =  -501.425526788     A.U. after   24 cycles
 E2 =    -0.1536141325D+01 EUMP2 =    -0.50296166811316D+03
 CCSD(T)
 CCSD(T)= -0.50317131499D+03
 PMP3-0=-503.0841969\MP4SDQ=-503.0914426\CCSD=-503.1122292\CCSD(T)=-503
 Normal termination of Gaussian 09 at Tue Apr 29 17:41:23 2014.

 -----------------------------------------------------
 #P Geom=AllCheck Guess=TCheck SCRF=Check MP4SDQ/CBSB4
 -----------------------------------------------------

 Structure from the checkpoint file:  TS_2d_24.chk
 ----------------------------------------------------
 TS_2d_24 using b3lyp/6-311++g(d,p) to calculate freq
 ----------------------------------------------------
 Charge =  0 Multiplicity = 2

 SCF Done:  E(UHF) =  -501.457662157     A.U. after   16 cycles
 E2 =    -0.1661105866D+01 EUMP2 =    -0.50311876802288D+03
 Normal termination of Gaussian 09 at Tue Apr 29 18:05:10 2014.

 ----------------------------------------------------------------------
 #P Geom=AllCheck Guess=TCheck SCRF=Check MP2/CBSB3 CBSExtrap=(NMin=10,
 MinPop)
 ----------------------------------------------------------------------

 Structure from the checkpoint file:  TS_2d_24.chk
 ----------------------------------------------------
 TS_2d_24 using b3lyp/6-311++g(d,p) to calculate freq
 ----------------------------------------------------
 Charge =  0 Multiplicity = 2

                         Standard orientation:
 ---------------------------------------------------------------------
 Center     Atomic      Atomic             Coordinates (Angstroms)
 Number     Number       Type             X           Y           Z
 ---------------------------------------------------------------------
      1          6           0       -2.584591   -0.493529    1.457598
      2          1           0       -1.936496   -0.068309    2.228459
      3          1           0       -2.823520   -1.524196    1.738847
      4          1           0       -3.506674    0.085914    1.420693
      5          6           0       -0.502798   -1.173890    0.119893
      6          1           0       -0.159980   -1.334866    1.144851
      7          1           0       -0.529247   -2.143866   -0.389557
      8          6           0        0.360426   -0.155442   -0.574625
      9          1           0        0.334673   -0.136677   -1.659825
     10          6           0        1.477143    0.585614    0.077634
     11          1           0        1.378667    0.528576    1.168134
     12          1           0        1.387031    1.646357   -0.190930
     13          6           0        2.897515    0.110887   -0.331372
     14          1           0        2.960994    0.176894   -1.425383
     15          6           0        3.960768    1.044532    0.260973
     16          1           0        3.934287    1.022202    1.355806
     17          1           0        4.965319    0.746345   -0.052478
     18          1           0        3.803780    2.079648   -0.055512
     19          6           0       -2.783209   -0.944825   -1.027788
     20          1           0       -3.144028   -1.959318   -0.831918
     21          1           0       -3.639648   -0.276843   -1.123251
     22          1           0       -2.242655   -0.946242   -1.977591
     23          6           0        3.155825   -1.346617    0.072009
     24          1           0        4.153458   -1.669162   -0.239517
     25          1           0        3.093103   -1.467586    1.159108
     26          1           0        2.430242   -2.026854   -0.382371
     27          6           0       -1.878849   -0.469381    0.106532
     28          8           0       -1.364250    0.870027   -0.204286
     29          8           0       -2.728094    1.856014   -0.200422
     30          1           0       -2.333937    2.515563    0.384991
 ---------------------------------------------------------------------

 SCF Done:  E(UHF) =  -501.591651031     A.U. after   21 cycles
 E2 =    -0.1962447582D+01 EUMP2 =    -0.50355409861349D+03
 E2(CBS)=      -2.156339 CBS-Int=       0.064384 OIii=      17.173052

 The electronic state is 2-A.
 Alpha  occ. eigenvalues --  -20.60402 -20.57823 -11.28777 -11.22679 -11.22459
 Alpha  occ. eigenvalues --  -11.22206 -11.21263 -11.21133 -11.20825 -11.20820
 Alpha  occ. eigenvalues --  -11.20762  -1.39679  -1.25468  -1.09449  -1.04888
 Alpha  occ. eigenvalues --   -1.01872  -0.93851  -0.93015  -0.92516  -0.81512
 Alpha  occ. eigenvalues --   -0.76189  -0.74493  -0.67914  -0.65190  -0.63739
 Alpha  occ. eigenvalues --   -0.62785  -0.61152  -0.59279  -0.58550  -0.57886
 Alpha  occ. eigenvalues --   -0.56332  -0.55647  -0.53421  -0.52883  -0.52468
 Alpha  occ. eigenvalues --   -0.51569  -0.50636  -0.49812  -0.49547  -0.47881
 Alpha  occ. eigenvalues --   -0.46629  -0.45933  -0.44859  -0.42906  -0.30874
 Alpha virt. eigenvalues --    0.03918   0.04788   0.04963   0.05388   0.06348
 Alpha virt. eigenvalues --    0.06647   0.06918   0.07205   0.08020   0.08665
 Alpha virt. eigenvalues --    0.09043   0.09243   0.09404   0.10139   0.11441

  Beta  occ. eigenvalues --  -20.60341 -20.57122 -11.28446 -11.22646 -11.22252
  Beta  occ. eigenvalues --  -11.21571 -11.21162 -11.20849 -11.20825 -11.20759
  Beta  occ. eigenvalues --  -11.20294  -1.39503  -1.21793  -1.08508  -1.05770
  Beta  occ. eigenvalues --   -0.99649  -0.93880  -0.93106  -0.92513  -0.78900
  Beta  occ. eigenvalues --   -0.75512  -0.73289  -0.67899  -0.64265  -0.63621
  Beta  occ. eigenvalues --   -0.61662  -0.60458  -0.58759  -0.58336  -0.57419
  Beta  occ. eigenvalues --   -0.55559  -0.54129  -0.53241  -0.52521  -0.52287
  Beta  occ. eigenvalues --   -0.51281  -0.49669  -0.49111  -0.47941  -0.46752
  Beta  occ. eigenvalues --   -0.46051  -0.45678  -0.43905  -0.43388
  Beta virt. eigenvalues --    0.03919   0.04771   0.04943   0.05322   0.06316
  Beta virt. eigenvalues --    0.06630   0.06848   0.07219   0.08004   0.08638
  Beta virt. eigenvalues --    0.08984   0.09245   0.09389   0.10129   0.11465

 Mulliken atomic charges:
              1
     1  C   -0.382515
     2  H    0.071274
     3  H    0.067862
     4  H    0.112676
     5  C   -0.283361
     6  H    0.085268
     7  H    0.076159
     8  C   -0.129835
     9  H    0.150359
    10  C   -0.451883
    11  H    0.083232
    12  H    0.055459
    13  C    0.783229
    14  H    0.033328
    15  C   -0.420246
    16  H    0.052912
    17  H    0.083774
    18  H    0.058083
    19  C   -0.606082
    20  H    0.059905
    21  H    0.108749
    22  H    0.083545
    23  C   -0.590291
    24  H    0.085386
    25  H    0.063213
    26  H    0.064266
    27  C    0.715090
    28  O    0.004187
    29  O   -0.305526
    30  H    0.271782
 Sum of Mulliken atomic charges =   0.00000

 Dipole moment (field-independent basis, Debye):
    X=              0.5542    Y=             -0.7540    Z=              1.0945  Tot=              1.4400
 Quadrupole moment (field-independent basis, Debye-Ang):
   XX=            -74.2884   YY=            -68.9848   ZZ=            -71.0100
   XY=              2.0619   XZ=             -3.4310   YZ=              2.9134

    1 imaginary frequencies ignored.
 Normal termination of Gaussian 09 at Tue Apr 29 19:20:05 2014.
