 Gaussian 09, Revision C.01,
 Gaussian 09:  EM64L-G09RevC.01 23-Sep-2011

 -------------------------------
 #p cbs-qb3 opt=(TS,calcfc) freq
 -------------------------------

 (Enter /usr/caen/gaussian-09revc/g09/l101.exe)
 ---------------------------------------------------
 TS_2d_1 using b3lyp/6-311++g(d,p) to calculate freq
 ---------------------------------------------------
 Charge =  0 Multiplicity = 2

 SCF Done:  E(UB3LYP) =  -504.816634530     A.U. after   29 cycles
 Optimization completed.
    -- Stationary point found.
 Normal termination of Gaussian 09 at Thu May  1 03:14:26 2014.

 ---------------------------------------------------------
 #P Geom=AllCheck Guess=TCheck SCRF=Check B3LYP/CBSB7 Freq
 ---------------------------------------------------------

 Structure from the checkpoint file:  TS_2d_1.chk
 ---------------------------------------------------
 TS_2d_1 using b3lyp/6-311++g(d,p) to calculate freq
 ---------------------------------------------------
 Charge =  0 Multiplicity = 2

 SCF Done:  E(UB3LYP) =  -504.816634530     A.U. after    1 cycles

  Exact polarizability: 211.935  26.133 132.420  -1.054   0.841  99.529
 Approx polarizability: 325.193  63.216 216.965  -3.198   5.230 146.875

 ******    1 imaginary frequencies (negative Signs) ******

                     1                      2                      3
                     A                      A                      A
 Frequencies --  -992.3101                23.6552                32.9338
 Red. masses --     9.8776                 3.4011                 3.2036
 Frc consts  --     5.7305                 0.0011                 0.0020
 IR Inten    --  1349.2081                 0.2251                 2.2771

                     4                      5                      6
                     A                      A                      A
 Frequencies --    80.2311                93.1941               110.6701
 Red. masses --     2.8821                 2.3279                 1.5466
 Frc consts  --     0.0109                 0.0119                 0.0112
 IR Inten    --     3.3853                 2.4485                69.8705

                     7                      8                      9
                     A                      A                      A
 Frequencies --   143.0735               146.1135               193.1789
 Red. masses --     3.4776                 2.3534                 2.7399
 Frc consts  --     0.0419                 0.0296                 0.0602
 IR Inten    --     3.8415                20.4711                 1.2782

                    10                     11                     12
                     A                      A                      A
 Frequencies --   229.2844               231.7534               248.0164
 Red. masses --     1.1228                 1.0786                 1.1646
 Frc consts  --     0.0348                 0.0341                 0.0422
 IR Inten    --     0.5951                 0.1603                 7.3321

                    13                     14                     15
                     A                      A                      A
 Frequencies --   257.0843               277.0775               296.1450
 Red. masses --     1.1104                 2.8274                 2.8562
 Frc consts  --     0.0432                 0.1279                 0.1476
 IR Inten    --     3.3934                32.2168                15.7116

                    16                     17                     18
                     A                      A                      A
 Frequencies --   312.1887               343.4332               364.5193
 Red. masses --     3.6118                 2.2600                 2.5152
 Frc consts  --     0.2074                 0.1570                 0.1969
 IR Inten    --    16.1652                 0.1897                17.5604

                    19                     20                     21
                     A                      A                      A
 Frequencies --   377.0244               404.1622               451.3662
 Red. masses --     2.1124                 2.3824                 2.0501
 Frc consts  --     0.1769                 0.2293                 0.2461
 IR Inten    --     0.5510                 4.2399                 1.9836

                    22                     23                     24
                     A                      A                      A
 Frequencies --   481.7286               529.2204               577.1443
 Red. masses --     2.7824                 2.0232                 4.1658
 Frc consts  --     0.3804                 0.3339                 0.8175
 IR Inten    --     9.8815                 4.1532                99.5953

                    25                     26                     27
                     A                      A                      A
 Frequencies --   735.8351               748.7506               798.1297
 Red. masses --     2.1898                 3.0614                 2.3195
 Frc consts  --     0.6986                 1.0112                 0.8706
 IR Inten    --     2.5463                15.3613                 6.8067

                    28                     29                     30
                     A                      A                      A
 Frequencies --   870.8781               886.4019               928.6921
 Red. masses --     1.5745                 1.7248                 1.4669
 Frc consts  --     0.7036                 0.7984                 0.7454
 IR Inten    --    21.9600                 8.1546                 1.7516

                    31                     32                     33
                     A                      A                      A
 Frequencies --   933.0030               944.2839               957.6279
 Red. masses --     1.2078                 1.2381                 2.0922
 Frc consts  --     0.6195                 0.6504                 1.1304
 IR Inten    --     3.1902                66.3008                 7.0310

                    34                     35                     36
                     A                      A                      A
 Frequencies --   966.0062               979.8533              1003.6271
 Red. masses --     1.4392                 1.4478                 1.5152
 Frc consts  --     0.7913                 0.8190                 0.8992
 IR Inten    --     0.5351                 2.2011                 1.2423

                    37                     38                     39
                     A                      A                      A
 Frequencies --  1017.4285              1038.2547              1084.9519
 Red. masses --     1.4353                 1.5460                 1.3494
 Frc consts  --     0.8754                 0.9819                 0.9358
 IR Inten    --     2.0610                 6.7217                10.1862

                    40                     41                     42
                     A                      A                      A
 Frequencies --  1105.5907              1183.4323              1193.1155
 Red. masses --     1.3600                 1.8219                 1.5267
 Frc consts  --     0.9794                 1.5034                 1.2805
 IR Inten    --    13.3490                 6.3412                 3.5244

                    43                     44                     45
                     A                      A                      A
 Frequencies --  1193.6174              1217.8365              1229.8640
 Red. masses --     1.9523                 2.2535                 1.8248
 Frc consts  --     1.6388                 1.9692                 1.6262
 IR Inten    --    12.0685                 2.6085                 8.4700

                    46                     47                     48
                     A                      A                      A
 Frequencies --  1270.0130              1281.9194              1298.6462
 Red. masses --     1.7292                 2.0923                 1.3089
 Frc consts  --     1.6432                 2.0258                 1.3006
 IR Inten    --    47.8520                 9.9961                 3.7039

                    49                     50                     51
                     A                      A                      A
 Frequencies --  1365.3158              1368.9016              1384.0330
 Red. masses --     1.3359                 1.3635                 1.2690
 Frc consts  --     1.4672                 1.5054                 1.4322
 IR Inten    --    14.0517                 4.3504                24.2442

                    52                     53                     54
                     A                      A                      A
 Frequencies --  1396.9608              1404.3257              1422.3088
 Red. masses --     1.2308                 1.2704                 1.2343
 Frc consts  --     1.4152                 1.4761                 1.4711
 IR Inten    --     6.6437                10.6764                12.7260

                    55                     56                     57
                     A                      A                      A
 Frequencies --  1440.8523              1469.8327              1479.1643
 Red. masses --     1.3465                 1.0534                 1.1007
 Frc consts  --     1.6470                 1.3409                 1.4189
 IR Inten    --     5.3987                 2.3252                16.7949

                    58                     59                     60
                     A                      A                      A
 Frequencies --  1485.3284              1488.8188              1490.0017
 Red. masses --     1.0831                 1.0414                 1.0513
 Frc consts  --     1.4078                 1.3600                 1.3751
 IR Inten    --     9.5843                 0.9866                 2.9685

                    61                     62                     63
                     A                      A                      A
 Frequencies --  1496.3008              1500.6546              1508.1176
 Red. masses --     1.0547                 1.1251                 1.0451
 Frc consts  --     1.3913                 1.4928                 1.4005
 IR Inten    --     3.0296                16.4160                13.2597

                    64                     65                     66
                     A                      A                      A
 Frequencies --  1510.9362              1521.7085              2972.9074
 Red. masses --     1.0572                 1.4212                 1.0682
 Frc consts  --     1.4220                 1.9390                 5.5624
 IR Inten    --     3.7916                12.8026                19.2342

                    67                     68                     69
                     A                      A                      A
 Frequencies --  3006.4174              3019.1795              3022.8948
 Red. masses --     1.0844                 1.0347                 1.0351
 Frc consts  --     5.7746                 5.5569                 5.5730
 IR Inten    --    35.6133                32.9131                24.5922

                    70                     71                     72
                     A                      A                      A
 Frequencies --  3023.8055              3034.3776              3060.4151
 Red. masses --     1.0356                 1.0379                 1.0914
 Frc consts  --     5.5786                 5.6304                 6.0228
 IR Inten    --    14.0611                24.8414                 8.2811

                    73                     74                     75
                     A                      A                      A
 Frequencies --  3081.2668              3083.0297              3085.9820
 Red. masses --     1.1016                 1.1015                 1.0584
 Frc consts  --     6.1624                 6.1688                 5.9388
 IR Inten    --    19.5494                12.3160                 5.3768

                    76                     77                     78
                     A                      A                      A
 Frequencies --  3087.1254              3088.1416              3090.5771
 Red. masses --     1.1007                 1.1009                 1.1010
 Frc consts  --     6.1807                 6.1855                 6.1963
 IR Inten    --    30.9842                95.8113                 4.6168

                    79                     80                     81
                     A                      A                      A
 Frequencies --  3098.9050              3118.7995              3133.4576
 Red. masses --     1.0987                 1.1009                 1.0974
 Frc consts  --     6.2164                 6.3093                 6.3486
 IR Inten    --    15.8681                18.2747                12.2196

                    82                     83                     84
                     A                      A                      A
 Frequencies --  3134.1730              3169.8962              3812.3028
 Red. masses --     1.0920                 1.1085                 1.0681
 Frc consts  --     6.3199                 6.5623                 9.1462
 IR Inten    --     3.8163                 8.5895               121.5136

 - Thermochemistry -
 -------------------
 Temperature   298.150 Kelvin.  Pressure   1.00000 Atm.
 Atom     1 has atomic number  6 and mass  12.00000

 Molecular mass:   159.13850 amu.
 Principal axes and moments of inertia in atomic units:
                           1         2         3
     Eigenvalues --  1013.257323724.209054136.63981
           X            0.99990  -0.01264   0.00606
           Y            0.01261   0.99991   0.00510
           Z           -0.00612  -0.00502   0.99997
 This molecule is an asymmetric top.
 Rotational symmetry number  1.
 Warning -- assumption of classical behavior for rotation
           may cause significant error
 Rotational temperatures (Kelvin)      0.08548     0.02326     0.02094
 Rotational constants (GHZ):           1.78113     0.48460     0.43628
    1 imaginary frequencies ignored.
 Zero-point vibrational energy     687423.1 (Joules/Mol)
                                  164.29807 (Kcal/Mol)
 Warning -- explicit consideration of  23 degrees of freedom as
           vibrations may cause significant error
 Vibrational temperatures:     34.03    47.38   115.43   134.09   159.23
          (Kelvin)            205.85   210.22   277.94   329.89   333.44
                              356.84   369.89   398.65   426.09   449.17
                              494.12   524.46   542.45   581.50   649.41
                              693.10   761.43   830.38  1058.70  1077.28
                             1148.33  1253.00  1275.33  1336.18  1342.38
                             1358.61  1377.81  1389.87  1409.79  1443.99
                             1463.85  1493.82  1561.00  1590.70  1702.69
                             1716.62  1717.35  1752.19  1769.50  1827.26
                             1844.39  1868.46  1964.38  1969.54  1991.31
                             2009.91  2020.51  2046.38  2073.06  2114.76
                             2128.18  2137.05  2142.08  2143.78  2152.84
                             2159.10  2169.84  2173.90  2189.40  4277.35
                             4325.56  4343.92  4349.27  4350.58  4365.79
                             4403.25  4433.25  4435.79  4440.03  4441.68
                             4443.14  4446.65  4458.63  4487.25  4508.34
                             4509.37  4560.77  5485.05

 Zero-point correction=                           0.261826 (Hartree/Particle)
 Thermal correction to Energy=                    0.277068
 Thermal correction to Enthalpy=                  0.278012
 Thermal correction to Gibbs Free Energy=         0.218621
 Sum of electronic and zero-point Energies=           -504.554809
 Sum of electronic and thermal Energies=              -504.539566
 Sum of electronic and thermal Enthalpies=            -504.538622
 Sum of electronic and thermal Free Energies=         -504.598014

                     E (Thermal)             CV                S
                      KCal/Mol        Cal/Mol-Kelvin    Cal/Mol-Kelvin
 Total                  173.863             55.088            125.000
 Electronic               0.000              0.000              1.377
 Translational            0.889              2.981             41.103
 Rotational               0.889              2.981             31.124
 Vibrational            172.085             49.127             51.396
 Vibration     1          0.593              1.985              6.301
 Vibration     2          0.594              1.983              5.644
 Vibration     3          0.600              1.963              3.885
 Vibration     4          0.602              1.954              3.592
 Vibration     5          0.607              1.941              3.257
 Vibration     6          0.616              1.910              2.762
 Vibration     7          0.617              1.907              2.722
 Vibration     8          0.635              1.849              2.197
 Vibration     9          0.652              1.796              1.885
 Vibration    10          0.653              1.792              1.865
 Vibration    11          0.662              1.766              1.745
 Vibration    12          0.667              1.751              1.681
 Vibration    13          0.678              1.716              1.552
 Vibration    14          0.690              1.681              1.439
 Vibration    15          0.701              1.650              1.351
 Vibration    16          0.722              1.589              1.196
 Vibration    17          0.738              1.545              1.103
 Vibration    18          0.748              1.519              1.051
 Vibration    19          0.769              1.461              0.947
 Vibration    20          0.810              1.358              0.792
 Vibration    21          0.838              1.291              0.705
 Vibration    22          0.884              1.185              0.589
 Vibration    23          0.934              1.081              0.491

 Optimization completed.
    -- Stationary point found.
 Normal termination of Gaussian 09 at Thu May  1 03:24:33 2014.

 -----------------------------------------------------------
 #P Geom=AllCheck Guess=TCheck SCRF=Check CCSD(T)/6-31+G(d')
 -----------------------------------------------------------

 Structure from the checkpoint file:  TS_2d_1.chk
 ---------------------------------------------------
 TS_2d_1 using b3lyp/6-311++g(d,p) to calculate freq
 ---------------------------------------------------
 Charge =  0 Multiplicity = 2

 SCF Done:  E(UHF) =  -501.425859402     A.U. after   28 cycles
 E2 =    -0.1512413372D+01 EUMP2 =    -0.50293827277406D+03
 CCSD(T)
 CCSD(T)= -0.50315187626D+03
 0=-503.0715138\MP4SDQ=-503.0696793\CCSD=-503.0918589\CCSD(T)=-503.1518
 Normal termination of Gaussian 09 at Thu May  1 16:26:27 2014.

 -----------------------------------------------------
 #P Geom=AllCheck Guess=TCheck SCRF=Check MP4SDQ/CBSB4
 -----------------------------------------------------

 Structure from the checkpoint file:  TS_2d_1.chk
 ---------------------------------------------------
 TS_2d_1 using b3lyp/6-311++g(d,p) to calculate freq
 ---------------------------------------------------
 Charge =  0 Multiplicity = 2

 SCF Done:  E(UHF) =  -501.457924977     A.U. after   21 cycles
 E2 =    -0.1637453625D+01 EUMP2 =    -0.50309537860190D+03
 Normal termination of Gaussian 09 at Thu May  1 16:49:16 2014.

 ----------------------------------------------------------------------
 #P Geom=AllCheck Guess=TCheck SCRF=Check MP2/CBSB3 CBSExtrap=(NMin=10,
 MinPop)
 ----------------------------------------------------------------------

 Structure from the checkpoint file:  TS_2d_1.chk
 ---------------------------------------------------
 TS_2d_1 using b3lyp/6-311++g(d,p) to calculate freq
 ---------------------------------------------------
 Charge =  0 Multiplicity = 2

                         Standard orientation:
 ---------------------------------------------------------------------
 Center     Atomic      Atomic             Coordinates (Angstroms)
 Number     Number       Type             X           Y           Z
 ---------------------------------------------------------------------
      1          6           0        2.161993   -1.835774   -0.632592
      2          1           0        3.062734   -2.320039   -0.246037
      3          1           0        2.253310   -1.752982   -1.716322
      4          1           0        1.293873   -2.454702   -0.386311
      5          6           0        0.505646    0.206724   -0.719196
      6          1           0        0.576563    1.215837   -0.320795
      7          1           0        0.797595    0.165649   -1.766992
      8          6           0       -0.675964   -0.504374   -0.399503
      9          1           0       -0.960642   -1.344020   -1.029586
     10          6           0       -1.540441   -0.231297    0.785959
     11          1           0       -1.088913    0.554099    1.399195
     12          1           0       -1.601315   -1.133295    1.412951
     13          6           0       -3.004197    0.185064    0.445861
     14          1           0       -3.495262    0.337920    1.414918
     15          6           0       -3.772103   -0.920146   -0.290746
     16          1           0       -3.737773   -1.866416    0.257869
     17          1           0       -4.823367   -0.643700   -0.410432
     18          1           0       -3.366008   -1.095262   -1.291490
     19          6           0        1.849473   -0.475700    1.525659
     20          1           0        2.766947   -0.878613    1.965566
     21          1           0        1.718524    0.541945    1.893457
     22          1           0        1.009622   -1.095963    1.845078
     23          6           0       -3.055896    1.512703   -0.319916
     24          1           0       -4.090847    1.829079   -0.478335
     25          1           0       -2.542847    2.309003    0.226874
     26          1           0       -2.579731    1.423847   -1.301108
     27          6           0        2.005980   -0.451024    0.006564
     28          8           0        2.990067    0.326156   -0.423098
     29          8           0        2.568857    2.048850   -0.036506
     30          1           0        3.489214    2.290514   -0.204213
 ---------------------------------------------------------------------

 SCF Done:  E(UHF) =  -501.592055131     A.U. after   23 cycles
 E2 =    -0.1936528775D+01 EUMP2 =    -0.50352858390649D+03
 E2(CBS)=      -2.129257 CBS-Int=       0.063895 OIii=      17.027681

 The electronic state is 2-A.
 Alpha  occ. eigenvalues --  -20.62099 -20.58336 -11.29227 -11.22469 -11.21864
 Alpha  occ. eigenvalues --  -11.21770 -11.21456 -11.20987 -11.20719 -11.20527
 Alpha  occ. eigenvalues --  -11.20443  -1.40122  -1.30015  -1.09989  -1.04519
 Alpha  occ. eigenvalues --   -1.00269  -0.93987  -0.92495  -0.91928  -0.81613
 Alpha  occ. eigenvalues --   -0.76019  -0.73780  -0.68352  -0.65698  -0.64678
 Alpha  occ. eigenvalues --   -0.63127  -0.61554  -0.60097  -0.58935  -0.57787
 Alpha  occ. eigenvalues --   -0.57413  -0.55366  -0.53933  -0.53653  -0.53251
 Alpha  occ. eigenvalues --   -0.52763  -0.51479  -0.50836  -0.49130  -0.47455
 Alpha  occ. eigenvalues --   -0.46200  -0.45850  -0.44964  -0.41094  -0.29781
 Alpha virt. eigenvalues --    0.03913   0.04754   0.05167   0.05341   0.06361
 Alpha virt. eigenvalues --    0.06730   0.06942   0.07356   0.07691   0.08688
 Alpha virt. eigenvalues --    0.08995   0.09570   0.09914   0.10613   0.11486

  Beta  occ. eigenvalues --  -20.61531 -20.58472 -11.28047 -11.22273 -11.22202
  Beta  occ. eigenvalues --  -11.21929 -11.21773 -11.20730 -11.20575 -11.20445
  Beta  occ. eigenvalues --  -11.19507  -1.43229  -1.23194  -1.08585  -1.04426
  Beta  occ. eigenvalues --   -0.99349  -0.94353  -0.92527  -0.92437  -0.79520
  Beta  occ. eigenvalues --   -0.75613  -0.72464  -0.68669  -0.64605  -0.64047
  Beta  occ. eigenvalues --   -0.61975  -0.61518  -0.60688  -0.58586  -0.57176
  Beta  occ. eigenvalues --   -0.56769  -0.54298  -0.53935  -0.53573  -0.52705
  Beta  occ. eigenvalues --   -0.52294  -0.50598  -0.50021  -0.48602  -0.46125
  Beta  occ. eigenvalues --   -0.45503  -0.44990  -0.44214  -0.38793
  Beta virt. eigenvalues --    0.03913   0.04764   0.05066   0.05311   0.06339
  Beta virt. eigenvalues --    0.06739   0.06982   0.07299   0.07675   0.08655
  Beta virt. eigenvalues --    0.08944   0.09499   0.09941   0.10510   0.11227

 Mulliken atomic charges:
              1
     1  C   -0.436789
     2  H    0.083910
     3  H    0.085973
     4  H    0.084348
     5  C   -0.630120
     6  H    0.135421
     7  H    0.106467
     8  C    0.249307
     9  H    0.184363
    10  C   -0.303691
    11  H    0.080716
    12  H    0.070978
    13  C    0.604331
    14  H    0.062705
    15  C   -0.467067
    16  H    0.049339
    17  H    0.090911
    18  H    0.061179
    19  C   -0.331922
    20  H    0.094546
    21  H    0.088581
    22  H    0.083656
    23  C   -0.541214
    24  H    0.076743
    25  H    0.047296
    26  H    0.084394
    27  C    0.415702
    28  O   -0.209267
    29  O   -0.220246
    30  H    0.299452
 Sum of Mulliken atomic charges =   0.00000

 Dipole moment (field-independent basis, Debye):
    X=              0.2303    Y=             -0.4526    Z=              0.2982  Tot=              0.5889
 Quadrupole moment (field-independent basis, Debye-Ang):
   XX=            -68.6996   YY=            -69.3460   ZZ=            -72.4579
   XY=              2.4106   XZ=             -0.5667   YZ=              0.5776

    1 imaginary frequencies ignored.
 Normal termination of Gaussian 09 at Thu May  1 17:53:48 2014.
