 Gaussian 09, Revision C.01,
 Gaussian 09:  EM64L-G09RevC.01 23-Sep-2011

 -------------------------------
 #p cbs-qb3 opt=(TS,calcfc) freq
 -------------------------------

 (Enter /usr/caen/gaussian-09revc/g09/l101.exe)
 ----------------------------------------------------
 TS_2e_25 using b3lyp/6-311++g(d,p) to calculate freq
 ----------------------------------------------------
 Charge =  0 Multiplicity = 2

 SCF Done:  E(UB3LYP) =  -504.836432780     A.U. after   21 cycles
 SCF Done:  E(UB3LYP) =  -504.836669481     A.U. after   16 cycles
 SCF Done:  E(UB3LYP) =  -504.836675397     A.U. after   12 cycles
 SCF Done:  E(UB3LYP) =  -504.836675896     A.U. after   10 cycles
 SCF Done:  E(UB3LYP) =  -504.836676053     A.U. after   10 cycles
 Optimization completed.
    -- Stationary point found.
 Normal termination of Gaussian 09 at Mon Mar 31 16:44:50 2014.

 ---------------------------------------------------------
 #P Geom=AllCheck Guess=TCheck SCRF=Check B3LYP/CBSB7 Freq
 ---------------------------------------------------------

 Structure from the checkpoint file:  TS_2e_25.chk
 ----------------------------------------------------
 TS_2e_25 using b3lyp/6-311++g(d,p) to calculate freq
 ----------------------------------------------------
 Charge =  0 Multiplicity = 2

 SCF Done:  E(UB3LYP) =  -504.836676053     A.U. after    1 cycles

  Exact polarizability: 160.210  16.830 130.922   1.859   1.256  99.636
 Approx polarizability: 203.917  40.500 209.394   9.636   9.423 151.848

 ******    1 imaginary frequencies (negative Signs) ******

                     1                      2                      3
                     A                      A                      A
 Frequencies --  -591.9802                44.5622                58.3070
 Red. masses --    11.4727                 3.0598                 2.9201
 Frc consts  --     2.3688                 0.0036                 0.0058
 IR Inten    --   808.1861                 0.2738                 0.1676

                     4                      5                      6
                     A                      A                      A
 Frequencies --    95.9197               158.9296               182.3263
 Red. masses --     3.9630                 2.4263                 2.3309
 Frc consts  --     0.0215                 0.0361                 0.0457
 IR Inten    --     4.3987                 5.4695                 6.4122

                     7                      8                      9
                     A                      A                      A
 Frequencies --   213.0576               215.5787               233.6886
 Red. masses --     2.1513                 1.5716                 1.1179
 Frc consts  --     0.0575                 0.0430                 0.0360
 IR Inten    --     7.1348                 1.9287                27.0914

                    10                     11                     12
                     A                      A                      A
 Frequencies --   244.7613               249.7351               264.6678
 Red. masses --     1.2414                 1.4680                 1.1918
 Frc consts  --     0.0438                 0.0539                 0.0492
 IR Inten    --    39.0404                14.5726                24.8282

                    13                     14                     15
                     A                      A                      A
 Frequencies --   272.9537               296.3869               321.0479
 Red. masses --     1.5261                 2.8141                 2.0579
 Frc consts  --     0.0670                 0.1456                 0.1250
 IR Inten    --    15.4075                 4.9165                 8.3113

                    16                     17                     18
                     A                      A                      A
 Frequencies --   350.5918               366.2846               391.3910
 Red. masses --     2.3532                 2.2403                 2.6060
 Frc consts  --     0.1704                 0.1771                 0.2352
 IR Inten    --     2.7841                 1.0850                 0.7051

                    19                     20                     21
                     A                      A                      A
 Frequencies --   440.4420               463.0915               474.6641
 Red. masses --     2.8509                 3.0835                 2.5899
 Frc consts  --     0.3258                 0.3896                 0.3438
 IR Inten    --    12.7056                 3.9421                 1.6221

                    22                     23                     24
                     A                      A                      A
 Frequencies --   485.1742               570.6002               696.4545
 Red. masses --     1.9884                 2.8396                 1.3470
 Frc consts  --     0.2758                 0.5447                 0.3849
 IR Inten    --    16.2707                13.9053                 0.1657

                    25                     26                     27
                     A                      A                      A
 Frequencies --   726.5673               820.1097               835.3334
 Red. masses --     3.4564                 2.1848                 2.6725
 Frc consts  --     1.0750                 0.8658                 1.0987
 IR Inten    --     6.7100                 1.8654                16.6951

                    28                     29                     30
                     A                      A                      A
 Frequencies --   878.3903               917.4826               930.5479
 Red. masses --     2.1279                 1.7738                 1.6612
 Frc consts  --     0.9673                 0.8797                 0.8475
 IR Inten    --     1.1650                 2.0844                 0.5501

                    31                     32                     33
                     A                      A                      A
 Frequencies --   933.5737               945.1920               962.4403
 Red. masses --     1.2513                 1.7703                 1.5035
 Frc consts  --     0.6426                 0.9318                 0.8206
 IR Inten    --     2.3602                 4.1884                 1.9371

                    34                     35                     36
                     A                      A                      A
 Frequencies --   987.3031               989.6897              1025.5550
 Red. masses --     1.4388                 1.8553                 1.4812
 Frc consts  --     0.8263                 1.0707                 0.9179
 IR Inten    --     8.4685                 3.0113                 0.8051

                    37                     38                     39
                     A                      A                      A
 Frequencies --  1082.5021              1093.4689              1101.1438
 Red. masses --     1.8293                 1.1505                 1.6879
 Frc consts  --     1.2630                 0.8105                 1.2058
 IR Inten    --     1.1658                60.6749                 3.6905

                    40                     41                     42
                     A                      A                      A
 Frequencies --  1143.4668              1150.7038              1189.8349
 Red. masses --     1.9146                 1.7877                 1.7373
 Frc consts  --     1.4749                 1.3946                 1.4491
 IR Inten    --     2.5609                25.1327                 6.0523

                    43                     44                     45
                     A                      A                      A
 Frequencies --  1207.6100              1229.8076              1239.5063
 Red. masses --     2.2073                 1.7558                 2.1231
 Frc consts  --     1.8966                 1.5646                 1.9218
 IR Inten    --     4.5830                 5.1099                 0.2606

                    46                     47                     48
                     A                      A                      A
 Frequencies --  1271.1077              1312.5201              1325.4680
 Red. masses --     1.8211                 1.3661                 1.2809
 Frc consts  --     1.7336                 1.3866                 1.3259
 IR Inten    --    18.5751                 1.2785                 4.4874

                    49                     50                     51
                     A                      A                      A
 Frequencies --  1353.0913              1372.8177              1392.4634
 Red. masses --     1.4353                 1.3274                 1.2143
 Frc consts  --     1.5483                 1.4739                 1.3872
 IR Inten    --    20.2733                 0.1413                 5.1309

                    52                     53                     54
                     A                      A                      A
 Frequencies --  1393.9945              1410.7460              1412.8827
 Red. masses --     1.2902                 1.2779                 1.2614
 Frc consts  --     1.4771                 1.4984                 1.4836
 IR Inten    --    17.5391                 6.2742                14.0108

                    55                     56                     57
                     A                      A                      A
 Frequencies --  1431.4801              1471.6371              1480.1590
 Red. masses --     1.5333                 1.0643                 1.0802
 Frc consts  --     1.8512                 1.3580                 1.3944
 IR Inten    --     1.5801                 0.7895                 3.9898

                    58                     59                     60
                     A                      A                      A
 Frequencies --  1488.8562              1489.7779              1492.7736
 Red. masses --     1.0943                 1.0507                 1.0455
 Frc consts  --     1.4292                 1.3739                 1.3726
 IR Inten    --     0.5857                 3.7439                 2.1623

                    61                     62                     63
                     A                      A                      A
 Frequencies --  1494.9785              1498.6995              1504.1102
 Red. masses --     1.0600                 1.0521                 1.0626
 Frc consts  --     1.3958                 1.3923                 1.4164
 IR Inten    --    11.0417                 2.6250                 4.1086

                    64                     65                     66
                     A                      A                      A
 Frequencies --  1515.2480              1518.7227              2966.9138
 Red. masses --     1.0509                 1.0572                 1.0707
 Frc consts  --     1.4216                 1.4367                 5.5528
 IR Inten    --     5.2573                10.6416                37.5940

                    67                     68                     69
                     A                      A                      A
 Frequencies --  3005.7804              3014.4676              3020.0665
 Red. masses --     1.0812                 1.0350                 1.0397
 Frc consts  --     5.7553                 5.5414                 5.5870
 IR Inten    --     4.5583                35.4446                59.0805

                    70                     71                     72
                     A                      A                      A
 Frequencies --  3022.1890              3030.6711              3038.0819
 Red. masses --     1.0572                 1.0380                 1.0397
 Frc consts  --     5.6890                 5.6172                 5.6541
 IR Inten    --    23.4200                25.9489                31.2462

                    73                     74                     75
                     A                      A                      A
 Frequencies --  3048.9730              3067.3823              3074.2449
 Red. masses --     1.0928                 1.0995                 1.1007
 Frc consts  --     5.9852                 6.0953                 6.1293
 IR Inten    --     6.3002                35.0833                 4.4590

                    76                     77                     78
                     A                      A                      A
 Frequencies --  3081.5973              3087.0764              3092.9924
 Red. masses --     1.1010                 1.1018                 1.1014
 Frc consts  --     6.1601                 6.1866                 6.2079
 IR Inten    --    67.9008                36.4779                33.3452

                    79                     80                     81
                     A                      A                      A
 Frequencies --  3100.8201              3120.2380              3126.0279
 Red. masses --     1.0998                 1.0994                 1.1006
 Frc consts  --     6.2302                 6.3065                 6.3366
 IR Inten    --    42.8302                10.0634                 4.8561

                    82                     83                     84
                     A                      A                      A
 Frequencies --  3132.9507              3136.1266              3803.5977
 Red. masses --     1.0990                 1.0870                 1.0681
 Frc consts  --     6.3556                 6.2986                 9.1047
 IR Inten    --    15.0723                25.4994                54.0130

 - Thermochemistry -
 -------------------
 Temperature   298.150 Kelvin.  Pressure   1.00000 Atm.
 Atom     1 has atomic number  6 and mass  12.00000

 Molecular mass:   159.13850 amu.
 Principal axes and moments of inertia in atomic units:
                           1         2         3
     Eigenvalues --  1105.869912576.342343167.41285
           X            0.99989  -0.01499  -0.00150
           Y            0.01497   0.99977  -0.01541
           Z            0.00173   0.01539   0.99988
 This molecule is an asymmetric top.
 Rotational symmetry number  1.
 Warning -- assumption of classical behavior for rotation
           may cause significant error
 Rotational temperatures (Kelvin)      0.07832     0.03362     0.02735
 Rotational constants (GHZ):           1.63197     0.70051     0.56978
    1 imaginary frequencies ignored.
 Zero-point vibrational energy     694328.0 (Joules/Mol)
                                  165.94837 (Kcal/Mol)
 Warning -- explicit consideration of  22 degrees of freedom as
           vibrations may cause significant error
 Vibrational temperatures:     64.11    83.89   138.01   228.66   262.33
          (Kelvin)            306.54   310.17   336.23   352.16   359.31
                              380.80   392.72   426.43   461.92   504.42
                              527.00   563.12   633.70   666.28   682.93
                              698.06   820.97  1002.04  1045.37  1179.95
                             1201.86  1263.81  1320.05  1338.85  1343.20
                             1359.92  1384.74  1420.51  1423.94  1475.54
                             1557.48  1573.26  1584.30  1645.19  1655.60
                             1711.90  1737.48  1769.42  1783.37  1828.84
                             1888.42  1907.05  1946.79  1975.18  2003.44
                             2005.64  2029.75  2032.82  2059.58  2117.35
                             2129.62  2142.13  2143.46  2147.77  2150.94
                             2156.29  2164.08  2180.10  2185.10  4268.72
                             4324.64  4337.14  4345.20  4348.25  4360.45
                             4371.12  4386.79  4413.27  4423.15  4433.73
                             4441.61  4450.12  4461.38  4489.32  4497.65
                             4507.61  4512.18  5472.52

 Zero-point correction=                           0.264456 (Hartree/Particle)
 Thermal correction to Energy=                    0.278502
 Thermal correction to Enthalpy=                  0.279446
 Thermal correction to Gibbs Free Energy=         0.224393
 Sum of electronic and zero-point Energies=           -504.572220
 Sum of electronic and thermal Energies=              -504.558174
 Sum of electronic and thermal Enthalpies=            -504.557230
 Sum of electronic and thermal Free Energies=         -504.612283

                     E (Thermal)             CV                S
                      KCal/Mol        Cal/Mol-Kelvin    Cal/Mol-Kelvin
 Total                  174.763             53.187            115.869
 Electronic               0.000              0.000              1.377
 Translational            0.889              2.981             41.103
 Rotational               0.889              2.981             30.579
 Vibrational            172.985             47.226             42.809
 Vibration     1          0.595              1.980              5.045
 Vibration     2          0.596              1.974              4.514
 Vibration     3          0.603              1.952              3.536
 Vibration     4          0.621              1.893              2.562
 Vibration     5          0.630              1.864              2.304
 Vibration     6          0.644              1.821              2.017
 Vibration     7          0.645              1.817              1.996
 Vibration     8          0.654              1.789              1.850
 Vibration     9          0.660              1.771              1.768
 Vibration    10          0.663              1.763              1.732
 Vibration    11          0.671              1.738              1.631
 Vibration    12          0.676              1.723              1.577
 Vibration    13          0.690              1.680              1.437
 Vibration    14          0.707              1.633              1.305
 Vibration    15          0.727              1.574              1.164
 Vibration    16          0.739              1.542              1.095
 Vibration    17          0.759              1.489              0.995
 Vibration    18          0.800              1.382              0.825
 Vibration    19          0.821              1.332              0.757
 Vibration    20          0.831              1.306              0.725
 Vibration    21          0.841              1.283              0.696
 Vibration    22          0.927              1.095              0.503

 Optimization completed.
    -- Stationary point found.
 Normal termination of Gaussian 09 at Mon Mar 31 16:55:27 2014.

 -----------------------------------------------------------
 #P Geom=AllCheck Guess=TCheck SCRF=Check CCSD(T)/6-31+G(d')
 -----------------------------------------------------------

 Structure from the checkpoint file:  TS_2e_25.chk
 ----------------------------------------------------
 TS_2e_25 using b3lyp/6-311++g(d,p) to calculate freq
 ----------------------------------------------------
 Charge =  0 Multiplicity = 2

 SCF Done:  E(UHF) =  -501.431290153     A.U. after   25 cycles
 E2 =    -0.1538808316D+01 EUMP2 =    -0.50297009846885D+03
 CCSD(T)
 CCSD(T)= -0.50318025309D+03
 831\PMP3-0=-503.0917565\MP4SDQ=-503.0996766\CCSD=-503.1210519\CCSD(T)=
 Normal termination of Gaussian 09 at Tue Apr  1 05:42:44 2014.

 -----------------------------------------------------
 #P Geom=AllCheck Guess=TCheck SCRF=Check MP4SDQ/CBSB4
 -----------------------------------------------------

 Structure from the checkpoint file:  TS_2e_25.chk
 ----------------------------------------------------
 TS_2e_25 using b3lyp/6-311++g(d,p) to calculate freq
 ----------------------------------------------------
 Charge =  0 Multiplicity = 2

 SCF Done:  E(UHF) =  -501.463420434     A.U. after   20 cycles
 E2 =    -0.1663988172D+01 EUMP2 =    -0.50312740860676D+03
 Normal termination of Gaussian 09 at Tue Apr  1 06:05:17 2014.

 ----------------------------------------------------------------------
 #P Geom=AllCheck Guess=TCheck SCRF=Check MP2/CBSB3 CBSExtrap=(NMin=10,
 MinPop)
 ----------------------------------------------------------------------

 Structure from the checkpoint file:  TS_2e_25.chk
 ----------------------------------------------------
 TS_2e_25 using b3lyp/6-311++g(d,p) to calculate freq
 ----------------------------------------------------
 Charge =  0 Multiplicity = 2

                         Standard orientation:
 ---------------------------------------------------------------------
 Center     Atomic      Atomic             Coordinates (Angstroms)
 Number     Number       Type             X           Y           Z
 ---------------------------------------------------------------------
      1          6           0        1.942690   -0.287913    1.548558
      2          1           0        2.714868   -1.021238    1.799390
      3          1           0        2.280246    0.698684    1.866382
      4          6           0        1.675429   -0.276828    0.039275
      5          6           0        2.958135    0.019114   -0.745412
      6          1           0        2.734005    0.114976   -1.811146
      7          1           0        3.407976    0.948299   -0.397902
      8          6           0       -1.160988   -0.553769   -0.550038
      9          1           0       -1.180633   -0.395542   -1.625920
     10          6           0       -2.195681    0.158385    0.262640
     11          1           0       -1.852723    0.167214    1.304937
     12          6           0       -2.377550    1.613899   -0.191884
     13          1           0       -2.688702    1.658328   -1.241425
     14          1           0       -3.148040    2.112038    0.403808
     15          1           0       -1.443358    2.165790   -0.082289
     16          6           0       -3.540395   -0.608345    0.221827
     17          1           0       -4.282560   -0.110664    0.853811
     18          1           0       -3.936666   -0.644792   -0.797769
     19          1           0       -3.430031   -1.636217    0.577893
     20          1           0        3.680421   -0.792372   -0.617189
     21          1           0        1.037900   -0.532241    2.108463
     22          8           0        0.658556    0.707970   -0.267504
     23          6           0        1.065433   -1.612539   -0.452848
     24          1           0        1.140735   -1.645373   -1.544780
     25          1           0        1.662002   -2.444890   -0.063621
     26          6           0       -0.412187   -1.744669   -0.057270
     27          1           0       -0.809304   -2.676211   -0.488802
     28          1           0       -0.517198   -1.835624    1.028137
     29          8           0        1.303099    2.176185    0.144877
     30          1           0        1.208508    2.552588   -0.740056
 ---------------------------------------------------------------------

 SCF Done:  E(UHF) =  -501.597540801     A.U. after   18 cycles
 E2 =    -0.1965424960D+01 EUMP2 =    -0.50356296576158D+03
 E2(CBS)=      -2.158941 CBS-Int=       0.064379 OIii=      17.164261

 The electronic state is 2-A.
 Alpha  occ. eigenvalues --  -20.61099 -20.58556 -11.28800 -11.22431 -11.21714
 Alpha  occ. eigenvalues --  -11.21527 -11.21212 -11.21193 -11.20806 -11.20487
 Alpha  occ. eigenvalues --  -11.19708  -1.40682  -1.25135  -1.09342  -1.05855
 Alpha  occ. eigenvalues --   -1.01323  -0.93816  -0.91930  -0.91571  -0.82356
 Alpha  occ. eigenvalues --   -0.75548  -0.75122  -0.68168  -0.65330  -0.64810
 Alpha  occ. eigenvalues --   -0.61792  -0.60120  -0.59143  -0.58381  -0.57176
 Alpha  occ. eigenvalues --   -0.56037  -0.55801  -0.53951  -0.52812  -0.52702
 Alpha  occ. eigenvalues --   -0.51625  -0.51025  -0.49502  -0.48361  -0.47297
 Alpha  occ. eigenvalues --   -0.45925  -0.45486  -0.45066  -0.43193  -0.30343
 Alpha virt. eigenvalues --    0.03994   0.04879   0.04947   0.05343   0.06562
 Alpha virt. eigenvalues --    0.06797   0.07043   0.07248   0.07625   0.08728
 Alpha virt. eigenvalues --    0.09366   0.09503   0.09704   0.09962   0.11053

  Beta  occ. eigenvalues --  -20.60979 -20.57985 -11.28651 -11.22405 -11.22011
  Beta  occ. eigenvalues --  -11.21816 -11.21227 -11.20825 -11.20270 -11.19649
  Beta  occ. eigenvalues --  -11.18756  -1.40598  -1.22324  -1.07845  -1.06165
  Beta  occ. eigenvalues --   -1.01014  -0.93868  -0.91553  -0.89340  -0.81505
  Beta  occ. eigenvalues --   -0.74841  -0.73526  -0.68270  -0.64986  -0.63907
  Beta  occ. eigenvalues --   -0.61214  -0.59840  -0.58720  -0.56859  -0.56383
  Beta  occ. eigenvalues --   -0.55142  -0.54432  -0.53537  -0.52448  -0.52393
  Beta  occ. eigenvalues --   -0.51552  -0.51079  -0.48587  -0.47933  -0.46344
  Beta  occ. eigenvalues --   -0.45303  -0.44748  -0.44246  -0.43726
  Beta virt. eigenvalues --    0.03992   0.04835   0.04906   0.05315   0.06543
  Beta virt. eigenvalues --    0.06740   0.07002   0.07231   0.07581   0.08707
  Beta virt. eigenvalues --    0.09294   0.09525   0.09708   0.09961   0.11026

 Mulliken atomic charges:
              1
     1  C   -0.544869
     2  H    0.071711
     3  H    0.104833
     4  C    0.502087
     5  C   -0.384258
     6  H    0.086151
     7  H    0.105857
     8  C   -0.060922
     9  H    0.146137
    10  C    0.609723
    11  H    0.035813
    12  C   -0.553678
    13  H    0.061668
    14  H    0.083474
    15  H    0.073209
    16  C   -0.463585
    17  H    0.074871
    18  H    0.061198
    19  H    0.060144
    20  H    0.065750
    21  H    0.066559
    22  O    0.006078
    23  C   -0.116689
    24  H    0.079078
    25  H    0.073785
    26  C   -0.370861
    27  H    0.066830
    28  H    0.075065
    29  O   -0.264850
    30  H    0.249690
 Sum of Mulliken atomic charges =   0.00000

 Dipole moment (field-independent basis, Debye):
    X=              0.9837    Y=             -0.8540    Z=             -0.9497  Tot=              1.6121
 Quadrupole moment (field-independent basis, Debye-Ang):
   XX=            -71.5221   YY=            -70.1798   ZZ=            -70.1159
   XY=             -0.6713   XZ=             -1.4468   YZ=             -3.4634

    1 imaginary frequencies ignored.
 Normal termination of Gaussian 09 at Tue Apr  1 07:05:14 2014.
