 Gaussian 09, Revision C.01,
 Gaussian 09:  EM64L-G09RevC.01 23-Sep-2011

 -------------------------------
 #p cbs-qb3 opt=(TS,calcfc) freq
 -------------------------------

 (Enter /usr/caen/gaussian-09revc/g09/l101.exe)
 -------------------------------------
 TS_2c_23 using cbs-qb3 to cal. energy
 -------------------------------------
 Charge =  0 Multiplicity = 2

 SCF Done:  E(UB3LYP) =  -504.837253161     A.U. after   22 cycles
 SCF Done:  E(UB3LYP) =  -504.837253191     A.U. after    9 cycles
 Optimization completed.
    -- Stationary point found.
 Normal termination of Gaussian 09 at Tue Apr 29 10:49:55 2014.

 ---------------------------------------------------------
 #P Geom=AllCheck Guess=TCheck SCRF=Check B3LYP/CBSB7 Freq
 ---------------------------------------------------------

 Structure from the checkpoint file:  TS_2c_23.chk
 -------------------------------------
 TS_2c_23 using cbs-qb3 to cal. energy
 -------------------------------------
 Charge =  0 Multiplicity = 2

 SCF Done:  E(UB3LYP) =  -504.837253191     A.U. after    1 cycles

  Exact polarizability: 154.406  14.634 120.976   4.485   5.764 100.714
 Approx polarizability: 191.710  38.261 192.545  11.270  14.565 149.810

 ******    1 imaginary frequencies (negative Signs) ******

                     1                      2                      3
                     A                      A                      A
 Frequencies --  -645.9546                17.8651                35.6051
 Red. masses --    12.4972                 2.6934                 4.0159
 Frc consts  --     3.0723                 0.0005                 0.0030
 IR Inten    --   208.9024                 0.1537                 0.6776

                     4                      5                      6
                     A                      A                      A
 Frequencies --    65.1379               102.1199               115.2036
 Red. masses --     3.1077                 2.1375                 3.4342
 Frc consts  --     0.0078                 0.0131                 0.0269
 IR Inten    --     0.9775                 0.0765                 4.2503

                     7                      8                      9
                     A                      A                      A
 Frequencies --   159.8924               166.9352               185.2884
 Red. masses --     1.1585                 2.8511                 1.1770
 Frc consts  --     0.0175                 0.0468                 0.0238
 IR Inten    --    96.3552                 2.0039                 4.8658

                    10                     11                     12
                     A                      A                      A
 Frequencies --   209.9068               221.5700               226.7654
 Red. masses --     1.6427                 1.0949                 2.5794
 Frc consts  --     0.0426                 0.0317                 0.0781
 IR Inten    --     0.7101                 0.2642                 0.3112

                    13                     14                     15
                     A                      A                      A
 Frequencies --   246.6141               252.4715               273.2912
 Red. masses --     1.5250                 1.3814                 1.6969
 Frc consts  --     0.0546                 0.0519                 0.0747
 IR Inten    --     0.6986                 0.3700                 0.2403

                    16                     17                     18
                     A                      A                      A
 Frequencies --   345.5021               380.1843               390.4097
 Red. masses --     3.6078                 2.3761                 2.3000
 Frc consts  --     0.2537                 0.2023                 0.2065
 IR Inten    --    14.0873                 0.3655                 4.5454

                    19                     20                     21
                     A                      A                      A
 Frequencies --   407.2422               439.0032               449.5290
 Red. masses --     2.4914                 2.7357                 2.6329
 Frc consts  --     0.2434                 0.3106                 0.3135
 IR Inten    --     3.3505                 2.2110                 3.9644

                    22                     23                     24
                     A                      A                      A
 Frequencies --   490.7530               536.5746               702.3051
 Red. masses --     2.5382                 2.6076                 1.4605
 Frc consts  --     0.3602                 0.4423                 0.4244
 IR Inten    --     3.8993                 0.8376                12.0204

                    25                     26                     27
                     A                      A                      A
 Frequencies --   739.6052               776.0669               824.1608
 Red. masses --     1.7719                 1.9358                 2.3975
 Frc consts  --     0.5711                 0.6869                 0.9595
 IR Inten    --     9.1931                 0.6082                 2.1545

                    28                     29                     30
                     A                      A                      A
 Frequencies --   861.7061               926.8622               928.7425
 Red. masses --     2.7382                 1.4676                 1.2894
 Frc consts  --     1.1980                 0.7428                 0.6553
 IR Inten    --    11.4620                 6.6832                 1.7896

                    31                     32                     33
                     A                      A                      A
 Frequencies --   939.3392               953.5260               965.3172
 Red. masses --     1.5765                 1.7264                 1.5276
 Frc consts  --     0.8196                 0.9248                 0.8387
 IR Inten    --     6.8327                 9.1718                 9.5639

                    34                     35                     36
                     A                      A                      A
 Frequencies --   975.7668               998.0715              1019.8336
 Red. masses --     1.2858                 1.4063                 2.2039
 Frc consts  --     0.7213                 0.8254                 1.3505
 IR Inten    --    39.9947                 9.8041                 9.9290

                    37                     38                     39
                     A                      A                      A
 Frequencies --  1024.4630              1086.8779              1125.3995
 Red. masses --     1.8325                 1.3809                 2.1766
 Frc consts  --     1.1332                 0.9611                 1.6242
 IR Inten    --     8.4108                 5.8124                 6.0704

                    40                     41                     42
                     A                      A                      A
 Frequencies --  1153.2533              1158.5050              1189.4868
 Red. masses --     2.1191                 2.1796                 1.7738
 Frc consts  --     1.6605                 1.7235                 1.4787
 IR Inten    --     4.3353                11.9422                 9.5269

                    43                     44                     45
                     A                      A                      A
 Frequencies --  1208.6575              1234.3811              1273.2712
 Red. masses --     2.1922                 1.5571                 1.3939
 Frc consts  --     1.8869                 1.3979                 1.3314
 IR Inten    --    13.3589                 0.4567                 2.8738

                    46                     47                     48
                     A                      A                      A
 Frequencies --  1311.9577              1315.3769              1340.9864
 Red. masses --     2.0813                 1.1766                 1.3916
 Frc consts  --     2.1106                 1.1994                 1.4744
 IR Inten    --    23.0565                 3.2556                15.1095

                    49                     50                     51
                     A                      A                      A
 Frequencies --  1368.1777              1379.6663              1397.0721
 Red. masses --     1.3375                 1.4567                 1.3219
 Frc consts  --     1.4751                 1.6336                 1.5202
 IR Inten    --     4.3551                 0.3548                18.8899

                    52                     53                     54
                     A                      A                      A
 Frequencies --  1403.9181              1409.5891              1423.2132
 Red. masses --     1.2560                 1.2750                 1.2315
 Frc consts  --     1.4585                 1.4927                 1.4697
 IR Inten    --    10.9975                16.8188                 5.5715

                    55                     56                     57
                     A                      A                      A
 Frequencies --  1431.9096              1464.3452              1473.3642
 Red. masses --     1.7240                 1.0812                 1.0629
 Frc consts  --     2.0826                 1.3660                 1.3594
 IR Inten    --     3.8243                 0.9243                 1.6067

                    58                     59                     60
                     A                      A                      A
 Frequencies --  1487.5796              1492.6802              1495.1775
 Red. masses --     1.0649                 1.0457                 1.0513
 Frc consts  --     1.3885                 1.3728                 1.3847
 IR Inten    --     0.3879                 2.0533                 2.8719

                    61                     62                     63
                     A                      A                      A
 Frequencies --  1497.1006              1500.3213              1506.7140
 Red. masses --     1.1308                 1.0772                 1.0548
 Frc consts  --     1.4933                 1.4286                 1.4109
 IR Inten    --     5.6913                 6.0927                 3.5906

                    64                     65                     66
                     A                      A                      A
 Frequencies --  1513.5880              1516.0527              2973.3855
 Red. masses --     1.0473                 1.0490                 1.0699
 Frc consts  --     1.4136                 1.4206                 5.5732
 IR Inten    --    16.4642                 7.2813                 9.1017

                    67                     68                     69
                     A                      A                      A
 Frequencies --  2987.0942              3008.6948              3014.8221
 Red. masses --     1.0813                 1.0644                 1.0363
 Frc consts  --     5.6845                 5.6771                 5.5497
 IR Inten    --     7.3540                19.9220                29.3670

                    70                     71                     72
                     A                      A                      A
 Frequencies --  3020.6476              3033.6542              3042.1179
 Red. masses --     1.0397                 1.0362                 1.0375
 Frc consts  --     5.5892                 5.6183                 5.6572
 IR Inten    --    40.6671                18.6567                13.5419

                    73                     74                     75
                     A                      A                      A
 Frequencies --  3061.9163              3074.3321              3079.8937
 Red. masses --     1.0928                 1.1003                 1.0963
 Frc consts  --     6.0366                 6.1271                 6.1273
 IR Inten    --    11.5473                 5.3911                20.4466

                    76                     77                     78
                     A                      A                      A
 Frequencies --  3083.4237              3086.5820              3088.7470
 Red. masses --     1.0949                 1.1015                 1.1007
 Frc consts  --     6.1331                 6.1831                 6.1872
 IR Inten    --    69.0930                25.8567                62.5383

                    79                     80                     81
                     A                      A                      A
 Frequencies --  3103.3798              3111.8305              3120.1998
 Red. masses --     1.1010                 1.0991                 1.1019
 Frc consts  --     6.2477                 6.2708                 6.3203
 IR Inten    --    19.6989                25.5900                10.3414

                    82                     83                     84
                     A                      A                      A
 Frequencies --  3125.9959              3159.4623              3798.5382
 Red. masses --     1.1010                 1.0872                 1.0680
 Frc consts  --     6.3390                 6.3941                 9.0791
 IR Inten    --    18.1297                13.0142                38.6119

 - Thermochemistry -
 -------------------
 Temperature   298.150 Kelvin.  Pressure   1.00000 Atm.
 Atom     1 has atomic number  6 and mass  12.00000

 Molecular mass:   159.13850 amu.
 Principal axes and moments of inertia in atomic units:
                           1         2         3
     Eigenvalues --   904.146014182.612504566.35448
           X            0.99989  -0.01449   0.00194
           Y            0.01450   0.99989  -0.00105
           Z           -0.00193   0.00108   1.00000
 This molecule is an asymmetric top.
 Rotational symmetry number  1.
 Warning -- assumption of classical behavior for rotation
           may cause significant error
 Rotational temperatures (Kelvin)      0.09580     0.02071     0.01897
 Rotational constants (GHZ):           1.99607     0.43149     0.39523
    1 imaginary frequencies ignored.
 Zero-point vibrational energy     690765.5 (Joules/Mol)
                                  165.09691 (Kcal/Mol)
 Warning -- explicit consideration of  22 degrees of freedom as
           vibrations may cause significant error
 Vibrational temperatures:     25.70    51.23    93.72   146.93   165.75
          (Kelvin)            230.05   240.18   266.59   302.01   318.79
                              326.26   354.82   363.25   393.20   497.10
                              547.00   561.71   585.93   631.63   646.77
                              706.08   772.01  1010.46  1064.13  1116.59
                             1185.78  1239.80  1333.55  1336.25  1351.50
                             1371.91  1388.87  1403.91  1436.00  1467.31
                             1473.97  1563.77  1619.20  1659.27  1666.83
                             1711.40  1738.99  1776.00  1831.95  1887.61
                             1892.53  1929.38  1968.50  1985.03  2010.07
                             2019.92  2028.08  2047.68  2060.20  2106.86
                             2119.84  2140.29  2147.63  2151.22  2153.99
                             2158.63  2167.82  2177.71  2181.26  4278.03
                             4297.76  4328.84  4337.65  4346.03  4364.75
                             4376.92  4405.41  4423.27  4431.27  4436.35
                             4440.90  4444.01  4465.07  4477.22  4489.27
                             4497.61  4545.76  5465.24

 Zero-point correction=                           0.263099 (Hartree/Particle)
 Thermal correction to Energy=                    0.278158
 Thermal correction to Enthalpy=                  0.279102
 Thermal correction to Gibbs Free Energy=         0.219706
 Sum of electronic and zero-point Energies=           -504.574155
 Sum of electronic and thermal Energies=              -504.559095
 Sum of electronic and thermal Enthalpies=            -504.558151
 Sum of electronic and thermal Free Energies=         -504.617547

                     E (Thermal)             CV                S
                      KCal/Mol        Cal/Mol-Kelvin    Cal/Mol-Kelvin
 Total                  174.547             54.178            125.010
 Electronic               0.000              0.000              1.377
 Translational            0.889              2.981             41.103
 Rotational               0.889              2.981             31.224
 Vibrational            172.769             48.216             51.305
 Vibration     1          0.593              1.986              6.858
 Vibration     2          0.594              1.982              5.490
 Vibration     3          0.597              1.971              4.295
 Vibration     4          0.604              1.947              3.413
 Vibration     5          0.608              1.937              3.179
 Vibration     6          0.622              1.891              2.551
 Vibration     7          0.624              1.883              2.470
 Vibration     8          0.631              1.860              2.274
 Vibration     9          0.642              1.826              2.044
 Vibration    10          0.648              1.808              1.946
 Vibration    11          0.650              1.800              1.904
 Vibration    12          0.661              1.768              1.755
 Vibration    13          0.664              1.759              1.713
 Vibration    14          0.676              1.723              1.575
 Vibration    15          0.724              1.584              1.187
 Vibration    16          0.750              1.512              1.038
 Vibration    17          0.758              1.491              0.999
 Vibration    18          0.772              1.454              0.936
 Vibration    19          0.799              1.385              0.830
 Vibration    20          0.808              1.362              0.797
 Vibration    21          0.847              1.271              0.682
 Vibration    22          0.892              1.169              0.573

 Optimization completed.
    -- Stationary point found.
 Normal termination of Gaussian 09 at Tue Apr 29 11:02:59 2014.

 -----------------------------------------------------------
 #P Geom=AllCheck Guess=TCheck SCRF=Check CCSD(T)/6-31+G(d')
 -----------------------------------------------------------

 Structure from the checkpoint file:  TS_2c_23.chk
 -------------------------------------
 TS_2c_23 using cbs-qb3 to cal. energy
 -------------------------------------
 Charge =  0 Multiplicity = 2

 SCF Done:  E(UHF) =  -501.445491291     A.U. after   24 cycles
 E2 =    -0.1528260425D+01 EUMP2 =    -0.50297375171630D+03
 CCSD(T)
 CCSD(T)= -0.50317955019D+03
 70729\MP4SDQ=-503.1034603\CCSD=-503.1218091\CCSD(T)=-503.1795502\S2=1.
 Normal termination of Gaussian 09 at Wed Apr 30 03:03:04 2014.

 -----------------------------------------------------
 #P Geom=AllCheck Guess=TCheck SCRF=Check MP4SDQ/CBSB4
 -----------------------------------------------------

 Structure from the checkpoint file:  TS_2c_23.chk
 -------------------------------------
 TS_2c_23 using cbs-qb3 to cal. energy
 -------------------------------------
 Charge =  0 Multiplicity = 2

 SCF Done:  E(UHF) =  -501.477776666     A.U. after   19 cycles
 E2 =    -0.1653364025D+01 EUMP2 =    -0.50313114069158D+03
 Normal termination of Gaussian 09 at Wed Apr 30 03:36:12 2014.

 ----------------------------------------------------------------------
 #P Geom=AllCheck Guess=TCheck SCRF=Check MP2/CBSB3 CBSExtrap=(NMin=10,
 MinPop)
 ----------------------------------------------------------------------

 Structure from the checkpoint file:  TS_2c_23.chk
 -------------------------------------
 TS_2c_23 using cbs-qb3 to cal. energy
 -------------------------------------
 Charge =  0 Multiplicity = 2

                         Standard orientation:
 ---------------------------------------------------------------------
 Center     Atomic      Atomic             Coordinates (Angstroms)
 Number     Number       Type             X           Y           Z
 ---------------------------------------------------------------------
      1          6           0        3.212103   -0.900282   -0.925447
      2          1           0        3.021127   -0.650485   -1.971102
      3          1           0        3.374607   -1.978548   -0.839917
      4          1           0        4.117758   -0.379055   -0.611422
      5          6           0        0.700039   -0.748061   -0.627842
      6          1           0        0.660919   -0.812690   -1.711229
      7          6           0       -0.592693   -0.807436    0.102052
      8          1           0       -0.445973   -0.658287    1.174037
      9          1           0       -0.990538   -1.826701   -0.018706
     10          6           0       -1.632829    0.204347   -0.426107
     11          1           0       -1.810408    0.018834   -1.493377
     12          1           0       -1.189646    1.202011   -0.355772
     13          6           0       -2.978846    0.190636    0.321310
     14          1           0       -2.766949    0.334577    1.389850
     15          6           0       -3.852919    1.364628   -0.142431
     16          1           0       -4.097766    1.272801   -1.206148
     17          1           0       -4.794710    1.399604    0.412682
     18          1           0       -3.342974    2.321519    0.000175
     19          6           0        2.272014   -0.769403    1.422370
     20          1           0        2.377357   -1.846247    1.580820
     21          1           0        3.187584   -0.272373    1.745084
     22          1           0        1.454899   -0.398985    2.042735
     23          6           0       -3.731594   -1.138099    0.163601
     24          1           0       -4.687064   -1.110006    0.695156
     25          1           0       -3.945969   -1.340061   -0.891831
     26          1           0       -3.165347   -1.985862    0.558089
     27          6           0        2.044561   -0.448372   -0.051382
     28          8           0        1.709897    0.910212   -0.275501
     29          8           0        3.032107    1.911337    0.235159
     30          1           0        2.468042    2.449806    0.806867
 ---------------------------------------------------------------------

 SCF Done:  E(UHF) =  -501.612163078     A.U. after   21 cycles
 E2 =    -0.1953493911D+01 EUMP2 =    -0.50356565698959D+03
 E2(CBS)=      -2.146783 CBS-Int=       0.064203 OIii=      17.178511

 The electronic state is 2-A.
 Alpha  occ. eigenvalues --  -20.60618 -20.57507 -11.28996 -11.24316 -11.22479
 Alpha  occ. eigenvalues --  -11.22328 -11.21601 -11.21499 -11.21073 -11.20988
 Alpha  occ. eigenvalues --  -11.20854  -1.39392  -1.27961  -1.09759  -1.05034
 Alpha  occ. eigenvalues --   -1.01756  -0.94297  -0.92788  -0.92274  -0.83302
 Alpha  occ. eigenvalues --   -0.76518  -0.74167  -0.67671  -0.65118  -0.63954
 Alpha  occ. eigenvalues --   -0.62865  -0.62785  -0.59691  -0.58880  -0.57999
 Alpha  occ. eigenvalues --   -0.56262  -0.54962  -0.53522  -0.53403  -0.52421
 Alpha  occ. eigenvalues --   -0.51454  -0.51197  -0.50216  -0.50119  -0.48009
 Alpha  occ. eigenvalues --   -0.46070  -0.45859  -0.45378  -0.43315  -0.34170
 Alpha virt. eigenvalues --    0.03887   0.04777   0.04850   0.05250   0.06295
 Alpha virt. eigenvalues --    0.06652   0.06727   0.07070   0.08132   0.08510
 Alpha virt. eigenvalues --    0.08757   0.09309   0.09470   0.09910   0.11398

  Beta  occ. eigenvalues --  -20.60012 -20.57118 -11.29180 -11.22600 -11.22471
  Beta  occ. eigenvalues --  -11.22290 -11.21482 -11.21452 -11.21053 -11.20986
  Beta  occ. eigenvalues --  -11.20851  -1.39827  -1.21982  -1.09362  -1.04958
  Beta  occ. eigenvalues --   -1.01413  -0.94183  -0.92764  -0.90200  -0.83153
  Beta  occ. eigenvalues --   -0.76383  -0.73112  -0.67557  -0.63624  -0.63215
  Beta  occ. eigenvalues --   -0.62514  -0.61751  -0.59350  -0.58089  -0.57361
  Beta  occ. eigenvalues --   -0.55629  -0.54318  -0.53345  -0.52948  -0.52086
  Beta  occ. eigenvalues --   -0.51356  -0.50503  -0.49633  -0.47990  -0.47091
  Beta  occ. eigenvalues --   -0.45732  -0.45472  -0.44583  -0.43468
  Beta virt. eigenvalues --    0.03870   0.04711   0.04837   0.05230   0.06296
  Beta virt. eigenvalues --    0.06587   0.06714   0.07055   0.07999   0.08506
  Beta virt. eigenvalues --    0.08714   0.09201   0.09409   0.09897   0.11062

 Mulliken atomic charges:
              1
     1  C   -0.337988
     2  H    0.081739
     3  H    0.050338
     4  H    0.098727
     5  C    0.161837
     6  H    0.185112
     7  C   -0.012069
     8  H    0.070788
     9  H    0.037693
    10  C   -0.779353
    11  H    0.062968
    12  H    0.085826
    13  C    0.827572
    14  H    0.026346
    15  C   -0.419454
    16  H    0.054394
    17  H    0.091292
    18  H    0.059595
    19  C   -0.492714
    20  H    0.076308
    21  H    0.096477
    22  H    0.071865
    23  C   -0.548674
    24  H    0.086910
    25  H    0.065774
    26  H    0.075553
    27  C    0.352977
    28  O   -0.108498
    29  O   -0.292296
    30  H    0.270953
 Sum of Mulliken atomic charges =   0.00000

 Dipole moment (field-independent basis, Debye):
    X=             -1.0066    Y=             -1.1256    Z=              1.2363  Tot=              1.9516
 Quadrupole moment (field-independent basis, Debye-Ang):
   XX=            -75.9360   YY=            -70.4506   ZZ=            -69.8220
   XY=             -3.3345   XZ=              2.5033   YZ=              3.9296

    1 imaginary frequencies ignored.
 Normal termination of Gaussian 09 at Wed Apr 30 05:19:19 2014.
