 Gaussian 09, Revision C.01,
 Gaussian 09:  EM64L-G09RevC.01 23-Sep-2011

 -------------------------------
 #p cbs-qb3 opt=(TS,calcfc) freq
 -------------------------------

 (Enter /usr/caen/gaussian-09revc/g09/l101.exe)
 ----------------------------------------------------
 TS_2a_12 using b3lyp/6-311++g(d,p) to calculate freq
 ----------------------------------------------------
 Charge =  0 Multiplicity = 2

 SCF Done:  E(UB3LYP) =  -504.827899752     A.U. after   23 cycles
 SCF Done:  E(UB3LYP) =  -504.827936092     A.U. after   19 cycles
 SCF Done:  E(UB3LYP) =  -504.828000166     A.U. after   16 cycles
 SCF Done:  E(UB3LYP) =  -504.828005078     A.U. after   13 cycles
 SCF Done:  E(UB3LYP) =  -504.828005917     A.U. after   13 cycles
 SCF Done:  E(UB3LYP) =  -504.828005921     A.U. after    7 cycles
 Optimization completed.
    -- Stationary point found.
 Normal termination of Gaussian 09 at Mon Mar 31 16:34:29 2014.

 ---------------------------------------------------------
 #P Geom=AllCheck Guess=TCheck SCRF=Check B3LYP/CBSB7 Freq
 ---------------------------------------------------------

 Structure from the checkpoint file:  TS_2a_12.chk
 ----------------------------------------------------
 TS_2a_12 using b3lyp/6-311++g(d,p) to calculate freq
 ----------------------------------------------------
 Charge =  0 Multiplicity = 2

 SCF Done:  E(UB3LYP) =  -504.828005921     A.U. after    1 cycles

  Exact polarizability: 129.889  -0.376 129.027  -0.983  -2.213 100.396
 Approx polarizability: 148.013  -1.528 218.031   2.132 -11.580 150.560

 ******    1 imaginary frequencies (negative Signs) ******

                     1                      2                      3
                     A                      A                      A
 Frequencies --  -701.4074                22.2150                43.4147
 Red. masses --    13.3070                 2.7677                 4.1643
 Frc consts  --     3.8572                 0.0008                 0.0046
 IR Inten    --   117.3805                 0.1561                 1.2214

                     4                      5                      6
                     A                      A                      A
 Frequencies --    82.2299                88.9741               113.0549
 Red. masses --     2.8646                 3.1716                 1.9129
 Frc consts  --     0.0114                 0.0148                 0.0144
 IR Inten    --     1.5372                 0.7319                 0.4712

                     7                      8                      9
                     A                      A                      A
 Frequencies --   145.8366               162.7074               204.2546
 Red. masses --     2.5050                 1.1725                 2.8923
 Frc consts  --     0.0314                 0.0183                 0.0711
 IR Inten    --     2.3480               101.3728                 1.2914

                    10                     11                     12
                     A                      A                      A
 Frequencies --   221.2976               225.0067               234.5477
 Red. masses --     1.1232                 2.7834                 1.1332
 Frc consts  --     0.0324                 0.0830                 0.0367
 IR Inten    --     0.4636                 0.6647                 0.0757

                    13                     14                     15
                     A                      A                      A
 Frequencies --   249.3718               260.9714               336.9222
 Red. masses --     2.7676                 1.1698                 2.7559
 Frc consts  --     0.1014                 0.0469                 0.1843
 IR Inten    --     0.3967                 0.0804                 6.2950

                    16                     17                     18
                     A                      A                      A
 Frequencies --   354.8364               384.8391               390.1017
 Red. masses --     3.1517                 2.1394                 2.9084
 Frc consts  --     0.2338                 0.1867                 0.2608
 IR Inten    --     7.1903                 0.9219                 5.1268

                    19                     20                     21
                     A                      A                      A
 Frequencies --   425.7993               446.2456               474.5319
 Red. masses --     1.4913                 1.9127                 2.7385
 Frc consts  --     0.1593                 0.2244                 0.3633
 IR Inten    --     0.1838                 0.6314                 3.3146

                    22                     23                     24
                     A                      A                      A
 Frequencies --   484.1555               570.5369               739.2878
 Red. masses --     2.1024                 2.4543                 1.2548
 Frc consts  --     0.2904                 0.4707                 0.4041
 IR Inten    --     3.4409                 3.5062                12.1943

                    25                     26                     27
                     A                      A                      A
 Frequencies --   754.8436               774.1120               820.7522
 Red. masses --     1.3127                 2.9168                 2.0593
 Frc consts  --     0.4407                 1.0298                 0.8173
 IR Inten    --    24.9885                 2.6570                 4.4338

                    28                     29                     30
                     A                      A                      A
 Frequencies --   842.6235               883.1103               917.0445
 Red. masses --     1.7762                 2.1704                 1.6411
 Frc consts  --     0.7430                 0.9973                 0.8131
 IR Inten    --     0.9642                10.2031                 1.9708

                    31                     32                     33
                     A                      A                      A
 Frequencies --   929.1776               948.5458               965.6362
 Red. masses --     1.2229                 1.8527                 1.4433
 Frc consts  --     0.6221                 0.9822                 0.7930
 IR Inten    --     1.3248                 1.5432                 0.0334

                    34                     35                     36
                     A                      A                      A
 Frequencies --   977.0147               987.3102              1015.9135
 Red. masses --     1.3667                 1.2752                 1.4512
 Frc consts  --     0.7686                 0.7324                 0.8824
 IR Inten    --    17.5132                55.4892                 0.0731

                    37                     38                     39
                     A                      A                      A
 Frequencies --  1045.0892              1059.3729              1080.3647
 Red. masses --     3.2455                 2.2476                 1.4613
 Frc consts  --     2.0885                 1.4862                 1.0049
 IR Inten    --     2.3914                 0.3371                 3.1177

                    40                     41                     42
                     A                      A                      A
 Frequencies --  1136.8651              1173.1694              1190.1574
 Red. masses --     2.2054                 2.1016                 1.7701
 Frc consts  --     1.6794                 1.7042                 1.4772
 IR Inten    --     2.3661                 4.0670                 4.1101

                    43                     44                     45
                     A                      A                      A
 Frequencies --  1210.3196              1229.0535              1278.5113
 Red. masses --     2.1376                 1.5729                 1.4837
 Frc consts  --     1.8449                 1.3999                 1.4289
 IR Inten    --     8.7154                 4.6087                 9.9331

                    46                     47                     48
                     A                      A                      A
 Frequencies --  1305.4449              1324.8380              1340.0302
 Red. masses --     1.5763                 1.6074                 1.2423
 Frc consts  --     1.5827                 1.6623                 1.3143
 IR Inten    --     9.3211                13.2868                 3.3095

                    49                     50                     51
                     A                      A                      A
 Frequencies --  1350.9782              1372.7348              1386.8444
 Red. masses --     1.3023                 1.3177                 1.4735
 Frc consts  --     1.4005                 1.4630                 1.6697
 IR Inten    --     1.9752                 2.5616                 0.4695

                    52                     53                     54
                     A                      A                      A
 Frequencies --  1400.6207              1401.7149              1406.8904
 Red. masses --     1.3700                 1.2979                 1.4424
 Frc consts  --     1.5835                 1.5025                 1.6821
 IR Inten    --     5.4316                21.3658                 1.1973

                    55                     56                     57
                     A                      A                      A
 Frequencies --  1421.7727              1463.0045              1471.0287
 Red. masses --     1.2423                 1.1990                 1.0791
 Frc consts  --     1.4796                 1.5120                 1.3758
 IR Inten    --     7.1397                21.0004                 0.6307

                    58                     59                     60
                     A                      A                      A
 Frequencies --  1482.6047              1488.9248              1492.4688
 Red. masses --     1.0710                 1.1131                 1.0460
 Frc consts  --     1.3870                 1.4539                 1.3728
 IR Inten    --     0.2061                 2.7266                 0.6245

                    61                     62                     63
                     A                      A                      A
 Frequencies --  1498.9656              1504.0347              1506.9305
 Red. masses --     1.0568                 1.0508                 1.0670
 Frc consts  --     1.3990                 1.4005                 1.4276
 IR Inten    --     2.4446                 4.0187                 3.7815

                    64                     65                     66
                     A                      A                      A
 Frequencies --  1508.9242              1514.5108              2986.0444
 Red. masses --     1.0784                 1.0533                 1.0679
 Frc consts  --     1.4467                 1.4235                 5.6100
 IR Inten    --     1.6195                16.5954                 7.3343

                    67                     68                     69
                     A                      A                      A
 Frequencies --  2996.6548              3012.2984              3015.0089
 Red. masses --     1.0749                 1.0366                 1.0606
 Frc consts  --     5.6869                 5.5417                 5.6804
 IR Inten    --    21.6256                27.3217                12.5139

                    70                     71                     72
                     A                      A                      A
 Frequencies --  3018.0618              3021.5066              3030.7689
 Red. masses --     1.0405                 1.0822                 1.0783
 Frc consts  --     5.5838                 5.8212                 5.8359
 IR Inten    --    45.0219                 9.5613                39.6854

                    73                     74                     75
                     A                      A                      A
 Frequencies --  3036.5476              3056.4693              3071.0034
 Red. masses --     1.0365                 1.0944                 1.1000
 Frc consts  --     5.6309                 6.0237                 6.1121
 IR Inten    --    25.4470                 3.7541                 4.4715

                    76                     77                     78
                     A                      A                      A
 Frequencies --  3077.3476              3079.6679              3083.6664
 Red. masses --     1.1011                 1.1015                 1.1018
 Frc consts  --     6.1438                 6.1553                 6.1727
 IR Inten    --    26.0544                83.3253                52.1493

                    79                     80                     81
                     A                      A                      A
 Frequencies --  3092.1586              3102.1377              3123.3767
 Red. masses --     1.0996                 1.1025                 1.1007
 Frc consts  --     6.1947                 6.2509                 6.3268
 IR Inten    --    46.3541                29.4652                 9.3974

                    82                     83                     84
                     A                      A                      A
 Frequencies --  3161.7558              3278.3315              3795.7844
 Red. masses --     1.0503                 1.1205                 1.0679
 Frc consts  --     6.1860                 7.0953                 9.0656
 IR Inten    --     3.0555                 4.5346                44.4947

 - Thermochemistry -
 -------------------
 Temperature   298.150 Kelvin.  Pressure   1.00000 Atm.
 Atom     1 has atomic number  6 and mass  12.00000

 Molecular mass:   159.13850 amu.
 Principal axes and moments of inertia in atomic units:
                           1         2         3
     Eigenvalues --   915.078734248.293784459.53329
           X            0.99995   0.00480  -0.00824
           Y           -0.00413   0.99675   0.08050
           Z            0.00860  -0.08046   0.99672
 This molecule is an asymmetric top.
 Rotational symmetry number  1.
 Warning -- assumption of classical behavior for rotation
           may cause significant error
 Rotational temperatures (Kelvin)      0.09465     0.02039     0.01942
 Rotational constants (GHZ):           1.97223     0.42482     0.40469
    1 imaginary frequencies ignored.
 Zero-point vibrational energy     691214.2 (Joules/Mol)
                                  165.20415 (Kcal/Mol)
 Warning -- explicit consideration of  22 degrees of freedom as
           vibrations may cause significant error
 Vibrational temperatures:     31.96    62.46   118.31   128.01   162.66
          (Kelvin)            209.83   234.10   293.88   318.40   323.73
                              337.46   358.79   375.48   484.76   510.53
                              553.70   561.27   612.63   642.05   682.74
                              696.59   820.87  1063.67  1086.05  1113.77
                             1180.88  1212.35  1270.60  1319.42  1336.88
                             1364.74  1389.33  1405.70  1420.52  1461.67
                             1503.65  1524.20  1554.40  1635.69  1687.93
                             1712.37  1741.38  1768.33  1839.49  1878.24
                             1906.14  1928.00  1943.75  1975.06  1995.36
                             2015.18  2016.75  2024.20  2045.61  2104.93
                             2116.48  2133.13  2142.23  2147.33  2156.67
                             2163.97  2168.13  2171.00  2179.04  4296.25
                             4311.51  4334.02  4337.92  4342.31  4347.27
                             4360.60  4368.91  4397.57  4418.48  4427.61
                             4430.95  4436.70  4448.92  4463.28  4493.84
                             4549.06  4716.78  5461.28

 Zero-point correction=                           0.263270 (Hartree/Particle)
 Thermal correction to Energy=                    0.278105
 Thermal correction to Enthalpy=                  0.279049
 Thermal correction to Gibbs Free Energy=         0.220504
 Sum of electronic and zero-point Energies=           -504.564736
 Sum of electronic and thermal Energies=              -504.549901
 Sum of electronic and thermal Enthalpies=            -504.548956
 Sum of electronic and thermal Free Energies=         -504.607502

                     E (Thermal)             CV                S
                      KCal/Mol        Cal/Mol-Kelvin    Cal/Mol-Kelvin
 Total                  174.514             53.919            123.220
 Electronic               0.000              0.000              1.377
 Translational            0.889              2.981             41.103
 Rotational               0.889              2.981             31.228
 Vibrational            172.736             47.958             49.511
 Vibration     1          0.593              1.985              6.426
 Vibration     2          0.595              1.980              5.097
 Vibration     3          0.600              1.961              3.837
 Vibration     4          0.602              1.957              3.683
 Vibration     5          0.607              1.939              3.216
 Vibration     6          0.617              1.907              2.726
 Vibration     7          0.623              1.888              2.518
 Vibration     8          0.640              1.834              2.094
 Vibration     9          0.648              1.809              1.948
 Vibration    10          0.650              1.803              1.918
 Vibration    11          0.654              1.788              1.844
 Vibration    12          0.662              1.764              1.735
 Vibration    13          0.669              1.744              1.655
 Vibration    14          0.718              1.602              1.227
 Vibration    15          0.731              1.565              1.145
 Vibration    16          0.754              1.503              1.020
 Vibration    17          0.758              1.491              1.000
 Vibration    18          0.788              1.414              0.872
 Vibration    19          0.806              1.369              0.807
 Vibration    20          0.831              1.307              0.725
 Vibration    21          0.840              1.285              0.699
 Vibration    22          0.927              1.095              0.503

 Optimization completed.
    -- Stationary point found.
 Normal termination of Gaussian 09 at Mon Mar 31 16:43:50 2014.

 -----------------------------------------------------------
 #P Geom=AllCheck Guess=TCheck SCRF=Check CCSD(T)/6-31+G(d')
 -----------------------------------------------------------

 Structure from the checkpoint file:  TS_2a_12.chk
 ----------------------------------------------------
 TS_2a_12 using b3lyp/6-311++g(d,p) to calculate freq
 ----------------------------------------------------
 Charge =  0 Multiplicity = 2

 SCF Done:  E(UHF) =  -501.441497155     A.U. after   24 cycles
 E2 =    -0.1527613022D+01 EUMP2 =    -0.50296911017710D+03
 CCSD(T)
 CCSD(T)= -0.50317291443D+03
 37\PMP3-0=-503.0922923\MP4SDQ=-503.0984321\CCSD=-503.1158117\CCSD(T)=-
 Normal termination of Gaussian 09 at Tue Apr  1 06:50:42 2014.

 -----------------------------------------------------
 #P Geom=AllCheck Guess=TCheck SCRF=Check MP4SDQ/CBSB4
 -----------------------------------------------------

 Structure from the checkpoint file:  TS_2a_12.chk
 ----------------------------------------------------
 TS_2a_12 using b3lyp/6-311++g(d,p) to calculate freq
 ----------------------------------------------------
 Charge =  0 Multiplicity = 2

 SCF Done:  E(UHF) =  -501.473717079     A.U. after   19 cycles
 E2 =    -0.1652633782D+01 EUMP2 =    -0.50312635086082D+03
 Normal termination of Gaussian 09 at Tue Apr  1 07:13:38 2014.

 ----------------------------------------------------------------------
 #P Geom=AllCheck Guess=TCheck SCRF=Check MP2/CBSB3 CBSExtrap=(NMin=10,
 MinPop)
 ----------------------------------------------------------------------

 Structure from the checkpoint file:  TS_2a_12.chk
 ----------------------------------------------------
 TS_2a_12 using b3lyp/6-311++g(d,p) to calculate freq
 ----------------------------------------------------
 Charge =  0 Multiplicity = 2

                         Standard orientation:
 ---------------------------------------------------------------------
 Center     Atomic      Atomic             Coordinates (Angstroms)
 Number     Number       Type             X           Y           Z
 ---------------------------------------------------------------------
      1          6           0       -3.286869   -0.039519    1.200708
      2          1           0       -3.286728    1.036170    1.381127
      3          1           0       -3.196353   -0.561778    2.156966
      4          1           0       -4.239873   -0.310788    0.740302
      5          6           0       -0.764911   -0.048661    0.889940
      6          1           0       -0.816187    1.002491    1.191845
      7          1           0       -0.648017   -0.635890    1.809112
      8          6           0        0.448442   -0.243556   -0.024897
      9          1           0        0.260864    0.279961   -0.967003
     10          1           0        0.566020   -1.304975   -0.267474
     11          6           0        1.742316    0.281459    0.610476
     12          1           0        1.941195   -0.259470    1.546545
     13          1           0        1.588267    1.330004    0.893451
     14          6           0        2.994030    0.199316   -0.284110
     15          1           0        2.759822    0.711734   -1.226964
     16          6           0        4.170490    0.936607    0.371063
     17          1           0        4.440939    0.469135    1.324403
     18          1           0        5.057083    0.919283   -0.269621
     19          1           0        3.922715    1.982950    0.572065
     20          6           0       -2.262143   -1.699219   -0.414259
     21          1           0       -3.244503   -2.126362   -0.565037
     22          1           0       -1.413400   -2.164362   -0.894234
     23          6           0        3.386907   -1.247167   -0.617733
     24          1           0        4.286609   -1.274045   -1.239496
     25          1           0        3.599829   -1.812172    0.297086
     26          1           0        2.598604   -1.774231   -1.160569
     27          6           0       -2.127801   -0.389376    0.273225
     28          8           0       -2.300550    0.136584   -1.031305
     29          8           0       -2.307914    1.869834   -0.951707
     30          1           0       -3.111930    1.941705   -1.484895
 ---------------------------------------------------------------------

 SCF Done:  E(UHF) =  -501.607963208     A.U. after   21 cycles
 E2 =    -0.1953168709D+01 EUMP2 =    -0.50356113191710D+03
 E2(CBS)=      -2.146059 CBS-Int=       0.064204 OIii=      17.177584

 The electronic state is 2-A.
 Alpha  occ. eigenvalues --  -20.60840 -20.57905 -11.29162 -11.24893 -11.21951
 Alpha  occ. eigenvalues --  -11.21780 -11.21582 -11.21016 -11.20932 -11.20528
 Alpha  occ. eigenvalues --  -11.20487  -1.39709  -1.28488  -1.09128  -1.05013
 Alpha  occ. eigenvalues --   -1.00433  -0.94641  -0.92327  -0.92056  -0.82457
 Alpha  occ. eigenvalues --   -0.75917  -0.75027  -0.67764  -0.65615  -0.64519
 Alpha  occ. eigenvalues --   -0.63393  -0.61776  -0.60048  -0.59266  -0.57784
 Alpha  occ. eigenvalues --   -0.55760  -0.54664  -0.53664  -0.52993  -0.52117
 Alpha  occ. eigenvalues --   -0.51504  -0.50633  -0.49820  -0.48368  -0.46980
 Alpha  occ. eigenvalues --   -0.45642  -0.45158  -0.44673  -0.42185  -0.37606
 Alpha virt. eigenvalues --    0.03978   0.04622   0.05263   0.05471   0.06316
 Alpha virt. eigenvalues --    0.06575   0.06754   0.07384   0.08415   0.08477
 Alpha virt. eigenvalues --    0.08625   0.09182   0.09746   0.11325   0.11704

  Beta  occ. eigenvalues --  -20.60373 -20.57327 -11.29333 -11.22931 -11.21951
  Beta  occ. eigenvalues --  -11.21763 -11.21569 -11.21016 -11.20934 -11.20528
  Beta  occ. eigenvalues --  -11.20487  -1.40275  -1.22227  -1.09236  -1.05615
  Beta  occ. eigenvalues --   -1.00404  -0.92361  -0.92249  -0.90114  -0.82367
  Beta  occ. eigenvalues --   -0.75891  -0.74269  -0.67291  -0.65457  -0.63846
  Beta  occ. eigenvalues --   -0.62041  -0.61089  -0.59823  -0.58763  -0.57346
  Beta  occ. eigenvalues --   -0.55391  -0.54282  -0.53127  -0.52932  -0.51853
  Beta  occ. eigenvalues --   -0.50769  -0.49791  -0.48971  -0.47098  -0.46153
  Beta  occ. eigenvalues --   -0.45849  -0.45163  -0.44441  -0.42544
  Beta virt. eigenvalues --    0.03916   0.04617   0.05251   0.05419   0.06288
  Beta virt. eigenvalues --    0.06531   0.06741   0.07396   0.07925   0.08427
  Beta virt. eigenvalues --    0.08478   0.09202   0.09626   0.09839   0.11346

 Mulliken atomic charges:
              1
     1  C    0.077309
     2  H    0.105555
     3  H    0.059654
     4  H    0.104080
     5  C    0.005613
     6  H    0.050198
     7  H    0.071214
     8  C   -0.372267
     9  H    0.075400
    10  H    0.000737
    11  C   -0.814976
    12  H    0.076308
    13  H    0.046436
    14  C    0.956204
    15  H    0.042768
    16  C   -0.404137
    17  H    0.052540
    18  H    0.100994
    19  H    0.056945
    20  C   -0.755120
    21  H    0.137666
    22  H    0.155559
    23  C   -0.603337
    24  H    0.087443
    25  H    0.064110
    26  H    0.070969
    27  C    0.725173
    28  O   -0.143123
    29  O   -0.308728
    30  H    0.278813
 Sum of Mulliken atomic charges =   0.00000

 Dipole moment (field-independent basis, Debye):
    X=             -1.0916    Y=             -0.7582    Z=              0.6556  Tot=              1.4820
 Quadrupole moment (field-independent basis, Debye-Ang):
   XX=            -65.9869   YY=            -70.7753   ZZ=            -71.9412
   XY=             -0.5131   XZ=             -0.0008   YZ=             -0.8304

    1 imaginary frequencies ignored.
 Normal termination of Gaussian 09 at Tue Apr  1 08:21:35 2014.
