 Gaussian 09, Revision C.01,
 Gaussian 09:  EM64L-G09RevC.01 23-Sep-2011

 -------------------------------
 #p cbs-qb3 opt=(TS,calcfc) freq
 -------------------------------

 (Enter /usr/caen/gaussian-09revc/g09/l101.exe)
 ---------------------------------------------------
 TS_2c_2 using b3lyp/6-311++g(d,p) to calculate freq
 ---------------------------------------------------
 Charge =  0 Multiplicity = 2

 SCF Done:  E(UB3LYP) =  -504.831067931     A.U. after   19 cycles
 Optimization completed.
    -- Stationary point found.
 Normal termination of Gaussian 09 at Thu Apr 17 17:00:49 2014.

 ---------------------------------------------------------
 #P Geom=AllCheck Guess=TCheck SCRF=Check B3LYP/CBSB7 Freq
 ---------------------------------------------------------

 Structure from the checkpoint file:  TS_2c_2.chk
 ---------------------------------------------------
 TS_2c_2 using b3lyp/6-311++g(d,p) to calculate freq
 ---------------------------------------------------
 Charge =  0 Multiplicity = 2

 SCF Done:  E(UB3LYP) =  -504.831067931     A.U. after    1 cycles

  Exact polarizability: 145.044   6.216 117.049   4.802   2.485 107.235
 Approx polarizability: 173.229  14.293 184.743  12.272  12.991 165.078

 ******    1 imaginary frequencies (negative Signs) ******

                     1                      2                      3
                     A                      A                      A
 Frequencies --  -453.9851                33.0219                44.3730
 Red. masses --     7.9078                 2.9400                 3.1915
 Frc consts  --     0.9603                 0.0019                 0.0037
 IR Inten    --    29.2223                 0.2145                 0.5546

                     4                      5                      6
                     A                      A                      A
 Frequencies --    49.5148               100.9885               112.0583
 Red. masses --     4.9475                 3.1128                 2.5876
 Frc consts  --     0.0071                 0.0187                 0.0191
 IR Inten    --     1.9631                 4.0778                 1.9946

                     7                      8                      9
                     A                      A                      A
 Frequencies --   145.1276               169.5116               185.1656
 Red. masses --     1.1111                 3.5604                 1.9226
 Frc consts  --     0.0138                 0.0603                 0.0388
 IR Inten    --     0.1032                 4.9795                 0.2433

                    10                     11                     12
                     A                      A                      A
 Frequencies --   193.7937               229.9705               237.4920
 Red. masses --     1.3444                 1.1267                 2.9829
 Frc consts  --     0.0297                 0.0351                 0.0991
 IR Inten    --     1.1339                 0.2485                 6.7803

                    13                     14                     15
                     A                      A                      A
 Frequencies --   258.3472               277.3015               303.4373
 Red. masses --     1.0570                 2.3433                 2.6492
 Frc consts  --     0.0416                 0.1062                 0.1437
 IR Inten    --     0.0876                 0.1873                 4.0532

                    16                     17                     18
                     A                      A                      A
 Frequencies --   337.0320               368.2733               374.9872
 Red. masses --     3.0169                 2.1303                 2.1505
 Frc consts  --     0.2019                 0.1702                 0.1782
 IR Inten    --     1.6014                 0.2528                 0.0210

                    19                     20                     21
                     A                      A                      A
 Frequencies --   407.6165               425.7240               448.1557
 Red. masses --     1.9656                 2.0611                 1.5617
 Frc consts  --     0.1924                 0.2201                 0.1848
 IR Inten    --    22.7905                14.3152                52.3866

                    22                     23                     24
                     A                      A                      A
 Frequencies --   503.7873               577.3017               731.0406
 Red. masses --     2.5581                 2.3508                 1.5831
 Frc consts  --     0.3825                 0.4616                 0.4985
 IR Inten    --     7.7564                 4.2583                 2.7356

                    25                     26                     27
                     A                      A                      A
 Frequencies --   753.9550               788.6835               811.6023
 Red. masses --     1.8570                 1.8823                 2.4831
 Frc consts  --     0.6219                 0.6898                 0.9637
 IR Inten    --     3.6356                 1.5407                 9.2239

                    28                     29                     30
                     A                      A                      A
 Frequencies --   925.8869               930.8940               945.3351
 Red. masses --     1.2720                 5.6504                 2.4675
 Frc consts  --     0.6425                 2.8849                 1.2992
 IR Inten    --     2.1882               139.2369                 2.9410

                    31                     32                     33
                     A                      A                      A
 Frequencies --   952.7518               958.3264               968.6234
 Red. masses --     1.4679                 1.4359                 1.6739
 Frc consts  --     0.7851                 0.7770                 0.9253
 IR Inten    --     2.0557                 3.1766                 0.2005

                    34                     35                     36
                     A                      A                      A
 Frequencies --   984.3931              1006.2535              1023.2644
 Red. masses --     2.0142                 1.3513                 1.7632
 Frc consts  --     1.1500                 0.8061                 1.0878
 IR Inten    --     3.6512                 2.4370                 0.5334

                    37                     38                     39
                     A                      A                      A
 Frequencies --  1077.4612              1101.6487              1121.6790
 Red. masses --     1.5902                 1.4885                 1.6724
 Frc consts  --     1.0877                 1.0644                 1.2398
 IR Inten    --     6.6928                 1.9019                 2.7111

                    40                     41                     42
                     A                      A                      A
 Frequencies --  1147.2628              1201.5805              1205.6913
 Red. masses --     2.2499                 1.8733                 1.7407
 Frc consts  --     1.7448                 1.5936                 1.4909
 IR Inten    --     4.8627                 1.7344                 5.4612

                    43                     44                     45
                     A                      A                      A
 Frequencies --  1257.1230              1277.2200              1319.0197
 Red. masses --     1.6649                 1.4765                 1.1153
 Frc consts  --     1.5502                 1.4191                 1.1433
 IR Inten    --     0.1101                11.5652                 0.6193

                    46                     47                     48
                     A                      A                      A
 Frequencies --  1346.7987              1360.9207              1373.4648
 Red. masses --     1.5128                 1.6105                 1.3496
 Frc consts  --     1.6168                 1.7574                 1.5000
 IR Inten    --     8.0113                11.6253                 1.4930

                    49                     50                     51
                     A                      A                      A
 Frequencies --  1375.7706              1384.5869              1403.0896
 Red. masses --     1.1191                 1.3072                 1.2734
 Frc consts  --     1.2480                 1.4765                 1.4770
 IR Inten    --    28.3325                 9.0456                 8.6031

                    52                     53                     54
                     A                      A                      A
 Frequencies --  1404.0440              1418.2994              1422.8871
 Red. masses --     1.3317                 1.2901                 1.2443
 Frc consts  --     1.5467                 1.5291                 1.4843
 IR Inten    --    26.6012                 8.6550                11.4244

                    55                     56                     57
                     A                      A                      A
 Frequencies --  1470.9987              1477.2099              1484.9214
 Red. masses --     1.2133                 1.0870                 1.1083
 Frc consts  --     1.5468                 1.3976                 1.4398
 IR Inten    --    10.6641                 0.8464                 2.8780

                    58                     59                     60
                     A                      A                      A
 Frequencies --  1490.2624              1491.9566              1498.6472
 Red. masses --     1.0422                 1.0622                 1.0538
 Frc consts  --     1.3637                 1.3931                 1.3944
 IR Inten    --     0.8303                 3.6292                 2.4485

                    61                     62                     63
                     A                      A                      A
 Frequencies --  1500.7667              1510.0269              1512.5907
 Red. masses --     1.0783                 1.0693                 1.0542
 Frc consts  --     1.4309                 1.4366                 1.4211
 IR Inten    --     2.8333                14.9622                19.7985

                    64                     65                     66
                     A                      A                      A
 Frequencies --  1513.5958              1532.2119              2993.5823
 Red. masses --     1.0696                 1.9734                 1.0812
 Frc consts  --     1.4437                 2.7296                 5.7089
 IR Inten    --     7.5965                24.9692                15.8159

                    67                     68                     69
                     A                      A                      A
 Frequencies --  3002.9424              3015.8288              3017.9083
 Red. masses --     1.0686                 1.0352                 1.0586
 Frc consts  --     5.6773                 5.5474                 5.6806
 IR Inten    --    10.3976                37.5168                37.6736

                    70                     71                     72
                     A                      A                      A
 Frequencies --  3022.1763              3022.5165              3029.8038
 Red. masses --     1.0382                 1.0448                 1.0435
 Frc consts  --     5.5871                 5.6235                 5.6440
 IR Inten    --    25.0370                 8.1895                20.2029

                    73                     74                     75
                     A                      A                      A
 Frequencies --  3065.9688              3074.5207              3076.2938
 Red. masses --     1.0918                 1.1008                 1.0988
 Frc consts  --     6.0466                 6.1307                 6.1266
 IR Inten    --     3.0713                10.8184                10.2352

                    76                     77                     78
                     A                      A                      A
 Frequencies --  3080.2492              3081.8956              3083.8834
 Red. masses --     1.1018                 1.1004                 1.1014
 Frc consts  --     6.1593                 6.1578                 6.1715
 IR Inten    --    25.6417                83.4160                45.4907

                    79                     80                     81
                     A                      A                      A
 Frequencies --  3086.0506              3097.5430              3108.0814
 Red. masses --     1.0952                 1.0916                 1.1013
 Frc consts  --     6.1452                 6.1708                 6.2682
 IR Inten    --    37.5521                10.8880                16.8727

                    82                     83                     84
                     A                      A                      A
 Frequencies --  3125.5906              3131.5842              3720.5297
 Red. masses --     1.1011                 1.0867                 1.0689
 Frc consts  --     6.3376                 6.2791                 8.7177
 IR Inten    --    18.0428                27.1617                31.9284

 - Thermochemistry -
 -------------------
 Temperature   298.150 Kelvin.  Pressure   1.00000 Atm.
 Atom     1 has atomic number  6 and mass  12.00000

 Molecular mass:   159.13850 amu.
 Principal axes and moments of inertia in atomic units:
                           1         2         3
     Eigenvalues --  1032.545143761.193663936.83904
           X            0.99993  -0.01098  -0.00352
           Y            0.01058   0.99512  -0.09812
           Z            0.00458   0.09808   0.99517
 This molecule is an asymmetric top.
 Rotational symmetry number  1.
 Warning -- assumption of classical behavior for rotation
           may cause significant error
 Rotational temperatures (Kelvin)      0.08388     0.02303     0.02200
 Rotational constants (GHZ):           1.74786     0.47983     0.45842
    1 imaginary frequencies ignored.
 Zero-point vibrational energy     694328.6 (Joules/Mol)
                                  165.94852 (Kcal/Mol)
 Warning -- explicit consideration of  22 degrees of freedom as
           vibrations may cause significant error
 Vibrational temperatures:     47.51    63.84    71.24   145.30   161.23
          (Kelvin)            208.81   243.89   266.41   278.83   330.88
                              341.70   371.70   398.97   436.58   484.91
                              529.86   539.52   586.47   612.52   644.80
                              724.84   830.61  1051.80  1084.77  1134.74
                             1167.71  1332.14  1339.35  1360.12  1370.80
                             1378.82  1393.63  1416.32  1447.77  1472.25
                             1550.22  1585.02  1613.84  1650.65  1728.80
                             1734.72  1808.72  1837.63  1897.77  1937.74
                             1958.06  1976.11  1979.42  1992.11  2018.73
                             2020.10  2040.61  2047.21  2116.44  2125.37
                             2136.47  2144.15  2146.59  2156.22  2159.27
                             2172.59  2176.28  2177.72  2204.51  4307.09
                             4320.56  4339.10  4342.09  4348.23  4348.72
                             4359.21  4411.24  4423.54  4426.10  4431.79
                             4434.15  4437.01  4440.13  4456.67  4471.83
                             4497.02  4505.65  5353.01

 Zero-point correction=                           0.264456 (Hartree/Particle)
 Thermal correction to Energy=                    0.279382
 Thermal correction to Enthalpy=                  0.280326
 Thermal correction to Gibbs Free Energy=         0.221655
 Sum of electronic and zero-point Energies=           -504.566612
 Sum of electronic and thermal Energies=              -504.551686
 Sum of electronic and thermal Enthalpies=            -504.550742
 Sum of electronic and thermal Free Energies=         -504.609412

                     E (Thermal)             CV                S
                      KCal/Mol        Cal/Mol-Kelvin    Cal/Mol-Kelvin
 Total                  175.315             53.554            123.483
 Electronic               0.000              0.000              1.377
 Translational            0.889              2.981             41.103
 Rotational               0.889              2.981             31.103
 Vibrational            173.537             47.592             49.899
 Vibration     1          0.594              1.983              5.639
 Vibration     2          0.595              1.980              5.054
 Vibration     3          0.595              1.978              4.837
 Vibration     4          0.604              1.948              3.435
 Vibration     5          0.607              1.939              3.233
 Vibration     6          0.617              1.908              2.735
 Vibration     7          0.625              1.880              2.441
 Vibration     8          0.631              1.860              2.276
 Vibration     9          0.635              1.848              2.191
 Vibration    10          0.652              1.795              1.879
 Vibration    11          0.656              1.783              1.822
 Vibration    12          0.667              1.749              1.673
 Vibration    13          0.678              1.715              1.550
 Vibration    14          0.695              1.667              1.398
 Vibration    15          0.718              1.602              1.226
 Vibration    16          0.741              1.537              1.087
 Vibration    17          0.746              1.523              1.059
 Vibration    18          0.772              1.454              0.935
 Vibration    19          0.788              1.414              0.873
 Vibration    20          0.807              1.365              0.801
 Vibration    21          0.859              1.242              0.649
 Vibration    22          0.934              1.080              0.490

 Optimization completed.
    -- Stationary point found.
 Normal termination of Gaussian 09 at Thu Apr 17 17:15:31 2014.

 -----------------------------------------------------------
 #P Geom=AllCheck Guess=TCheck SCRF=Check CCSD(T)/6-31+G(d')
 -----------------------------------------------------------

 Structure from the checkpoint file:  TS_2c_2.chk
 ---------------------------------------------------
 TS_2c_2 using b3lyp/6-311++g(d,p) to calculate freq
 ---------------------------------------------------
 Charge =  0 Multiplicity = 2

 SCF Done:  E(UHF) =  -501.416650122     A.U. after   25 cycles
 E2 =    -0.1562545646D+01 EUMP2 =    -0.50297919576770D+03
 CCSD(T)
 CCSD(T)= -0.50316687147D+03
 -0=-503.0839314\MP4SDQ=-503.1004354\CCSD=-503.1096939\CCSD(T)=-503.166
 Normal termination of Gaussian 09 at Fri Apr 18 10:17:13 2014.

 -----------------------------------------------------
 #P Geom=AllCheck Guess=TCheck SCRF=Check MP4SDQ/CBSB4
 -----------------------------------------------------

 Structure from the checkpoint file:  TS_2c_2.chk
 ---------------------------------------------------
 TS_2c_2 using b3lyp/6-311++g(d,p) to calculate freq
 ---------------------------------------------------
 Charge =  0 Multiplicity = 2

 SCF Done:  E(UHF) =  -501.448774160     A.U. after   17 cycles
 E2 =    -0.1688051087D+01 EUMP2 =    -0.50313682524732D+03
 Normal termination of Gaussian 09 at Fri Apr 18 10:48:34 2014.

 ----------------------------------------------------------------------
 #P Geom=AllCheck Guess=TCheck SCRF=Check MP2/CBSB3 CBSExtrap=(NMin=10,
 MinPop)
 ----------------------------------------------------------------------

 Structure from the checkpoint file:  TS_2c_2.chk
 ---------------------------------------------------
 TS_2c_2 using b3lyp/6-311++g(d,p) to calculate freq
 ---------------------------------------------------
 Charge =  0 Multiplicity = 2

                         Standard orientation:
 ---------------------------------------------------------------------
 Center     Atomic      Atomic             Coordinates (Angstroms)
 Number     Number       Type             X           Y           Z
 ---------------------------------------------------------------------
      1          6           0        3.231314   -0.592673   -0.838386
      2          1           0        3.239848    0.198241   -1.590830
      3          1           0        3.467951   -1.537006   -1.340449
      4          1           0        4.024076   -0.400575   -0.110483
      5          6           0        0.747654   -0.469177   -0.938849
      6          1           0        0.894726    0.053068   -1.881824
      7          6           0       -0.674120   -0.692682   -0.536936
      8          1           0       -0.733520   -1.333225    0.345197
      9          1           0       -1.183135   -1.228872   -1.348458
     10          6           0       -1.413342    0.643191   -0.274547
     11          1           0       -1.323461    1.270327   -1.169549
     12          1           0       -0.879713    1.171624    0.520525
     13          6           0       -2.907223    0.524925    0.096038
     14          1           0       -3.257139    1.556132    0.235911
     15          6           0       -3.753729   -0.090213   -1.027947
     16          1           0       -3.507318   -1.144085   -1.190910
     17          1           0       -4.819227   -0.040931   -0.784693
     18          1           0       -3.603728    0.438581   -1.974284
     19          6           0        1.838281   -1.557470    1.071701
     20          1           0        1.797552   -2.614603    0.787112
     21          1           0        2.730552   -1.401758    1.679599
     22          1           0        0.968369   -1.336570    1.690553
     23          6           0       -3.130853   -0.210244    1.425708
     24          1           0       -4.182341   -0.163910    1.724215
     25          1           0       -2.860658   -1.268362    1.353304
     26          1           0       -2.535511    0.233629    2.229082
     27          6           0        1.885502   -0.680310   -0.157884
     28          8           0        1.887424    0.963720    0.860285
     29          8           0        2.306346    2.070603    0.107876
     30          1           0        3.271596    2.021639    0.167306
 ---------------------------------------------------------------------

 SCF Done:  E(UHF) =  -501.585671112     A.U. after   19 cycles
 E2 =    -0.1989465244D+01 EUMP2 =    -0.50357513635572D+03
 E2(CBS)=      -2.184325 CBS-Int=       0.064993 OIii=      17.232678

 The electronic state is 2-A.
 Alpha  occ. eigenvalues --  -20.64347 -20.62169 -11.25235 -11.22617 -11.22401
 Alpha  occ. eigenvalues --  -11.21951 -11.21892 -11.21557 -11.20899 -11.20533
 Alpha  occ. eigenvalues --  -11.20470  -1.48769  -1.18810  -1.10575  -1.07558
 Alpha  occ. eigenvalues --   -1.01175  -0.94708  -0.92361  -0.92333  -0.84488
 Alpha  occ. eigenvalues --   -0.74797  -0.73064  -0.70961  -0.68195  -0.64521
 Alpha  occ. eigenvalues --   -0.63086  -0.61620  -0.59852  -0.58774  -0.58192
 Alpha  occ. eigenvalues --   -0.56941  -0.54697  -0.54135  -0.52750  -0.52361
 Alpha  occ. eigenvalues --   -0.52141  -0.51057  -0.49258  -0.48948  -0.48061
 Alpha  occ. eigenvalues --   -0.47435  -0.45451  -0.44954  -0.44535  -0.34483
 Alpha virt. eigenvalues --    0.03897   0.04506   0.05120   0.05305   0.06400
 Alpha virt. eigenvalues --    0.06569   0.06688   0.07424   0.07922   0.08612
 Alpha virt. eigenvalues --    0.08790   0.09260   0.09856   0.10466   0.11027

  Beta  occ. eigenvalues --  -20.62168 -20.60771 -11.26510 -11.22252 -11.21938
  Beta  occ. eigenvalues --  -11.21795 -11.21747 -11.20738 -11.20672 -11.20534
  Beta  occ. eigenvalues --  -11.20471  -1.44514  -1.13697  -1.08703  -1.06696
  Beta  occ. eigenvalues --   -1.00583  -0.94579  -0.92340  -0.90333  -0.84203
  Beta  occ. eigenvalues --   -0.74518  -0.72058  -0.69990  -0.64258  -0.63036
  Beta  occ. eigenvalues --   -0.62105  -0.59754  -0.59539  -0.58415  -0.57666
  Beta  occ. eigenvalues --   -0.55002  -0.54516  -0.53694  -0.52417  -0.51939
  Beta  occ. eigenvalues --   -0.51516  -0.50694  -0.48841  -0.47670  -0.46149
  Beta  occ. eigenvalues --   -0.44919  -0.44616  -0.44042  -0.34587
  Beta virt. eigenvalues --    0.03893   0.04507   0.05128   0.05264   0.06380
  Beta virt. eigenvalues --    0.06573   0.06698   0.07432   0.07927   0.08531
  Beta virt. eigenvalues --    0.08754   0.09275   0.09339   0.10224   0.11009

 Mulliken atomic charges:
              1
     1  C   -0.154789
     2  H    0.081840
     3  H    0.054692
     4  H    0.088763
     5  C    0.004200
     6  H    0.146164
     7  C   -0.172498
     8  H    0.088322
     9  H    0.070863
    10  C   -0.701300
    11  H    0.074453
    12  H    0.117495
    13  C    0.672260
    14  H    0.055205
    15  C   -0.465229
    16  H    0.076434
    17  H    0.089003
    18  H    0.051019
    19  C   -0.566229
    20  H    0.066873
    21  H    0.098288
    22  H    0.095571
    23  C   -0.517385
    24  H    0.084697
    25  H    0.065810
    26  H    0.058492
    27  C    0.429651
    28  O   -0.005790
    29  O   -0.225046
    30  H    0.238172
 Sum of Mulliken atomic charges =   0.00000

 Dipole moment (field-independent basis, Debye):
    X=              1.3347    Y=             -1.2627    Z=             -0.6370  Tot=              1.9447
 Quadrupole moment (field-independent basis, Debye-Ang):
   XX=            -62.6123   YY=            -73.6022   ZZ=            -72.3569
   XY=             -0.0903   XZ=             -0.9540   YZ=             -1.1925

    1 imaginary frequencies ignored.
 Normal termination of Gaussian 09 at Fri Apr 18 12:21:57 2014.
