 Gaussian 09, Revision C.01,
 Gaussian 09:  EM64L-G09RevC.01 23-Sep-2011

 -------------------------------
 #p cbs-qb3 opt=(TS,calcfc) freq
 -------------------------------

 (Enter /usr/caen/gaussian-09revc/g09/l101.exe)
 -------------------------------------
 TS_2f_26 using cbs-qb3 to cal. energy
 -------------------------------------
 Charge =  0 Multiplicity = 2

 SCF Done:  E(UB3LYP) =  -504.835199671     A.U. after   21 cycles
 Optimization completed.
    -- Stationary point found.
 Normal termination of Gaussian 09 at Wed Apr 30 21:21:26 2014.

 ---------------------------------------------------------
 #P Geom=AllCheck Guess=TCheck SCRF=Check B3LYP/CBSB7 Freq
 ---------------------------------------------------------

 Structure from the checkpoint file:  TS_2f_26.chk
 -------------------------------------
 TS_2f_26 using cbs-qb3 to cal. energy
 -------------------------------------
 Charge =  0 Multiplicity = 2

 SCF Done:  E(UB3LYP) =  -504.835199671     A.U. after    1 cycles

  Exact polarizability: 168.658  12.782 125.897  -0.985  -2.573 104.901
 Approx polarizability: 237.553  40.276 197.570  -0.814  -4.853 151.655

 ******    1 imaginary frequencies (negative Signs) ******

                     1                      2                      3
                     A                      A                      A
 Frequencies --  -566.7644                31.3528                94.4801
 Red. masses --     9.7277                 3.4188                 2.5687
 Frc consts  --     1.8411                 0.0020                 0.0135
 IR Inten    --   795.3532                 0.5230                 0.6006

                     4                      5                      6
                     A                      A                      A
 Frequencies --   131.9288               148.3676               158.1723
 Red. masses --     2.2781                 2.2633                 1.3603
 Frc consts  --     0.0234                 0.0294                 0.0201
 IR Inten    --     2.1673                11.6663                12.7410

                     7                      8                      9
                     A                      A                      A
 Frequencies --   181.5406               188.8594               206.0294
 Red. masses --     1.8714                 1.2142                 2.8709
 Frc consts  --     0.0363                 0.0255                 0.0718
 IR Inten    --     4.5905                 2.5971                 3.8020

                    10                     11                     12
                     A                      A                      A
 Frequencies --   218.3621               241.8153               259.2503
 Red. masses --     1.4968                 1.1445                 1.5356
 Frc consts  --     0.0421                 0.0394                 0.0608
 IR Inten    --    35.7798                22.0824                10.1197

                    13                     14                     15
                     A                      A                      A
 Frequencies --   269.8417               287.0052               333.2880
 Red. masses --     1.9109                 1.7840                 2.8355
 Frc consts  --     0.0820                 0.0866                 0.1856
 IR Inten    --     9.2267                21.1674                11.7368

                    16                     17                     18
                     A                      A                      A
 Frequencies --   351.5886               386.9633               393.7933
 Red. masses --     2.4471                 2.2268                 2.0970
 Frc consts  --     0.1782                 0.1965                 0.1916
 IR Inten    --     6.9427                 5.7281                 8.2467

                    19                     20                     21
                     A                      A                      A
 Frequencies --   396.7905               434.1820               463.5911
 Red. masses --     2.6940                 2.3778                 3.1212
 Frc consts  --     0.2499                 0.2641                 0.3952
 IR Inten    --    12.6239                 1.3141                13.2587

                    22                     23                     24
                     A                      A                      A
 Frequencies --   489.4488               550.5229               706.5027
 Red. masses --     2.5985                 2.5004                 3.0862
 Frc consts  --     0.3668                 0.4465                 0.9076
 IR Inten    --     1.1046                19.8279                 5.8187

                    25                     26                     27
                     A                      A                      A
 Frequencies --   754.9370               837.5061               844.0164
 Red. masses --     3.3564                 2.0251                 2.2516
 Frc consts  --     1.1271                 0.8369                 0.9450
 IR Inten    --     2.0491                 5.1022                 3.8136

                    28                     29                     30
                     A                      A                      A
 Frequencies --   868.8758               924.7336               936.1225
 Red. masses --     2.0473                 1.5832                 1.4097
 Frc consts  --     0.9106                 0.7977                 0.7279
 IR Inten    --     6.2835                 1.0900                 1.7717

                    31                     32                     33
                     A                      A                      A
 Frequencies --   938.8451               965.8655               983.0759
 Red. masses --     1.6677                 1.7571                 1.4089
 Frc consts  --     0.8661                 0.9658                 0.8022
 IR Inten    --     1.4356                 9.6885                 2.1733

                    34                     35                     36
                     A                      A                      A
 Frequencies --   994.2288              1005.8371              1039.7554
 Red. masses --     1.4711                 1.4598                 1.6521
 Frc consts  --     0.8567                 0.8702                 1.0523
 IR Inten    --     0.1565                 0.9941                 1.6340

                    37                     38                     39
                     A                      A                      A
 Frequencies --  1050.8178              1065.7861              1078.6347
 Red. masses --     1.1664                 1.6044                 2.1408
 Frc consts  --     0.7588                 1.0738                 1.4675
 IR Inten    --    62.1843                19.4749                 2.1316

                    40                     41                     42
                     A                      A                      A
 Frequencies --  1128.4166              1163.6437              1218.5029
 Red. masses --     1.3950                 1.9003                 2.1004
 Frc consts  --     1.0466                 1.5161                 1.8374
 IR Inten    --     1.9541                16.4565                16.9281

                    43                     44                     45
                     A                      A                      A
 Frequencies --  1238.6379              1247.5783              1282.3003
 Red. masses --     1.7493                 1.9302                 2.0414
 Frc consts  --     1.5813                 1.7701                 1.9776
 IR Inten    --    21.5437                 3.7842                 5.0556

                    46                     47                     48
                     A                      A                      A
 Frequencies --  1292.4784              1325.7992              1369.7152
 Red. masses --     2.0306                 1.4434                 1.3873
 Frc consts  --     1.9986                 1.4948                 1.5335
 IR Inten    --    21.0407                 4.8465                10.2197

                    49                     50                     51
                     A                      A                      A
 Frequencies --  1377.9690              1387.3661              1389.6262
 Red. masses --     1.4616                 1.2902                 1.3853
 Frc consts  --     1.6351                 1.4631                 1.5761
 IR Inten    --     5.6459                 7.8483                11.7114

                    52                     53                     54
                     A                      A                      A
 Frequencies --  1401.6470              1407.0753              1410.7167
 Red. masses --     1.3981                 1.2344                 1.2334
 Frc consts  --     1.6183                 1.4399                 1.4462
 IR Inten    --    16.4239                 8.5146                22.0522

                    55                     56                     57
                     A                      A                      A
 Frequencies --  1464.1000              1469.2054              1475.7316
 Red. masses --     1.0552                 1.0655                 1.0713
 Frc consts  --     1.3327                 1.3551                 1.3746
 IR Inten    --     0.5636                 0.0976                 0.9633

                    58                     59                     60
                     A                      A                      A
 Frequencies --  1479.0625              1483.8728              1489.0167
 Red. masses --     1.0653                 1.0664                 1.0823
 Frc consts  --     1.3730                 1.3834                 1.4138
 IR Inten    --     0.2208                 8.3889                 4.5469

                    61                     62                     63
                     A                      A                      A
 Frequencies --  1491.1746              1494.9746              1497.2801
 Red. masses --     1.0930                 1.0584                 1.0787
 Frc consts  --     1.4320                 1.3937                 1.4249
 IR Inten    --     3.3639                15.2912                 9.0668

                    64                     65                     66
                     A                      A                      A
 Frequencies --  1502.2815              1519.6961              2948.6087
 Red. masses --     1.0551                 1.0544                 1.0688
 Frc consts  --     1.4030                 1.4347                 5.4747
 IR Inten    --     7.1681                 3.5979                38.2083

                    67                     68                     69
                     A                      A                      A
 Frequencies --  2955.4895              2963.3410              3017.6612
 Red. masses --     1.0584                 1.0598                 1.0599
 Frc consts  --     5.4468                 5.4834                 5.6867
 IR Inten    --    29.1690               134.0354                15.4538

                    70                     71                     72
                     A                      A                      A
 Frequencies --  3027.5459              3030.7527              3037.2953
 Red. masses --     1.0584                 1.0407                 1.0406
 Frc consts  --     5.7158                 5.6321                 5.6560
 IR Inten    --    29.2175                32.2249                30.8630

                    73                     74                     75
                     A                      A                      A
 Frequencies --  3040.1855              3055.3739              3056.4213
 Red. masses --     1.0913                 1.0735                 1.0990
 Frc consts  --     5.9429                 5.9044                 6.0486
 IR Inten    --     9.3292                 7.0412                30.1441

                    76                     77                     78
                     A                      A                      A
 Frequencies --  3061.0814              3067.3595              3094.2466
 Red. masses --     1.0728                 1.0990                 1.1005
 Frc consts  --     5.9225                 6.0924                 6.2078
 IR Inten    --     5.0873                61.4364                25.4736

                    79                     80                     81
                     A                      A                      A
 Frequencies --  3098.6894              3101.0370              3107.7357
 Red. masses --     1.1006                 1.1017                 1.1014
 Frc consts  --     6.2265                 6.2423                 6.2674
 IR Inten    --    53.6338                21.7890                22.7886

                    82                     83                     84
                     A                      A                      A
 Frequencies --  3119.6049              3138.3619              3800.0444
 Red. masses --     1.1002                 1.0989                 1.0683
 Frc consts  --     6.3084                 6.3771                 9.0892
 IR Inten    --    11.7006                12.0440                28.8941

 - Thermochemistry -
 -------------------
 Temperature   298.150 Kelvin.  Pressure   1.00000 Atm.
 Atom     1 has atomic number  6 and mass  12.00000

 Molecular mass:   159.13850 amu.
 Principal axes and moments of inertia in atomic units:
                           1         2         3
     Eigenvalues --  1339.341532027.221262527.21139
           X            0.99932  -0.03674   0.00040
           Y            0.03674   0.99932  -0.00419
           Z           -0.00025   0.00420   0.99999
 This molecule is an asymmetric top.
 Rotational symmetry number  1.
 Warning -- assumption of classical behavior for rotation
           may cause significant error
 Rotational temperatures (Kelvin)      0.06467     0.04273     0.03427
 Rotational constants (GHZ):           1.34748     0.89025     0.71412
    1 imaginary frequencies ignored.
 Zero-point vibrational energy     693483.7 (Joules/Mol)
                                  165.74658 (Kcal/Mol)
 Warning -- explicit consideration of  22 degrees of freedom as
           vibrations may cause significant error
 Vibrational temperatures:     45.11   135.94   189.82   213.47   227.57
          (Kelvin)            261.20   271.73   296.43   314.17   347.92
                              373.00   388.24   412.94   479.53   505.86
                              556.75   566.58   570.89   624.69   667.00
                              704.21   792.08  1016.50  1086.18  1204.98
                             1214.35  1250.12  1330.48  1346.87  1350.79
                             1389.66  1414.43  1430.47  1447.17  1495.97
                             1511.89  1533.43  1551.91  1623.54  1674.22
                             1753.15  1782.12  1794.98  1844.94  1859.59
                             1907.53  1970.71  1982.59  1996.11  1999.36
                             2016.65  2024.47  2029.70  2106.51  2113.86
                             2123.25  2128.04  2134.96  2142.36  2145.46
                             2150.93  2154.25  2161.45  2186.50  4242.39
                             4252.28  4263.58  4341.74  4355.96  4360.57
                             4369.99  4374.14  4396.00  4397.50  4404.21
                             4413.24  4451.93  4458.32  4461.69  4471.33
                             4488.41  4515.40  5467.41

 Zero-point correction=                           0.264134 (Hartree/Particle)
 Thermal correction to Energy=                    0.278342
 Thermal correction to Enthalpy=                  0.279286
 Thermal correction to Gibbs Free Energy=         0.224027
 Sum of electronic and zero-point Energies=           -504.571066
 Sum of electronic and thermal Energies=              -504.556858
 Sum of electronic and thermal Enthalpies=            -504.555914
 Sum of electronic and thermal Free Energies=         -504.611173

                     E (Thermal)             CV                S
                      KCal/Mol        Cal/Mol-Kelvin    Cal/Mol-Kelvin
 Total                  174.662             53.282            116.303
 Electronic               0.000              0.000              1.377
 Translational            0.889              2.981             41.103
 Rotational               0.889              2.981             30.307
 Vibrational            172.885             47.321             43.516
 Vibration     1          0.594              1.983              5.742
 Vibration     2          0.603              1.953              3.565
 Vibration     3          0.612              1.921              2.918
 Vibration     4          0.618              1.904              2.693
 Vibration     5          0.621              1.893              2.572
 Vibration     6          0.630              1.865              2.313
 Vibration     7          0.633              1.855              2.239
 Vibration     8          0.641              1.831              2.079
 Vibration     9          0.646              1.813              1.973
 Vibration    10          0.658              1.776              1.789
 Vibration    11          0.668              1.747              1.667
 Vibration    12          0.674              1.729              1.597
 Vibration    13          0.684              1.698              1.492
 Vibration    14          0.715              1.609              1.244
 Vibration    15          0.728              1.572              1.159
 Vibration    16          0.755              1.498              1.012
 Vibration    17          0.761              1.483              0.986
 Vibration    18          0.763              1.477              0.975
 Vibration    19          0.795              1.396              0.845
 Vibration    20          0.821              1.331              0.756
 Vibration    21          0.845              1.273              0.685
 Vibration    22          0.906              1.139              0.543

 Optimization completed.
    -- Stationary point found.
 Normal termination of Gaussian 09 at Wed Apr 30 21:32:35 2014.

 -----------------------------------------------------------
 #P Geom=AllCheck Guess=TCheck SCRF=Check CCSD(T)/6-31+G(d')
 -----------------------------------------------------------

 Structure from the checkpoint file:  TS_2f_26.chk
 -------------------------------------
 TS_2f_26 using cbs-qb3 to cal. energy
 -------------------------------------
 Charge =  0 Multiplicity = 2

 SCF Done:  E(UHF) =  -501.430333565     A.U. after   25 cycles
 E2 =    -0.1535506125D+01 EUMP2 =    -0.50296583968994D+03
 CCSD(T)
 CCSD(T)= -0.50317867973D+03
 8\MP4SDQ=-503.0962924\CCSD=-503.1186989\CCSD(T)=-503.1786797\S2=1.3292
 Normal termination of Gaussian 09 at Thu May  1 09:29:17 2014.

 -----------------------------------------------------
 #P Geom=AllCheck Guess=TCheck SCRF=Check MP4SDQ/CBSB4
 -----------------------------------------------------

 Structure from the checkpoint file:  TS_2f_26.chk
 -------------------------------------
 TS_2f_26 using cbs-qb3 to cal. energy
 -------------------------------------
 Charge =  0 Multiplicity = 2

 SCF Done:  E(UHF) =  -501.462388789     A.U. after   20 cycles
 E2 =    -0.1660974937D+01 EUMP2 =    -0.50312336372531D+03
 Normal termination of Gaussian 09 at Thu May  1 09:52:01 2014.

 ----------------------------------------------------------------------
 #P Geom=AllCheck Guess=TCheck SCRF=Check MP2/CBSB3 CBSExtrap=(NMin=10,
 MinPop)
 ----------------------------------------------------------------------

 Structure from the checkpoint file:  TS_2f_26.chk
 -------------------------------------
 TS_2f_26 using cbs-qb3 to cal. energy
 -------------------------------------
 Charge =  0 Multiplicity = 2

                         Standard orientation:
 ---------------------------------------------------------------------
 Center     Atomic      Atomic             Coordinates (Angstroms)
 Number     Number       Type             X           Y           Z
 ---------------------------------------------------------------------
      1          6           0       -2.493927   -0.093934   -1.074798
      2          1           0       -2.053725   -0.219356   -2.066711
      3          1           0       -3.234888    0.709943   -1.119958
      4          1           0       -2.992571   -1.022401   -0.801782
      5          6           0       -0.740593    1.582694   -0.474563
      6          1           0       -0.542135    1.544989   -1.551453
      7          1           0       -1.508864    2.349497   -0.328817
      8          6           0        0.540597    2.015353    0.247025
      9          1           0        0.445215    1.869755    1.327419
     10          1           0        0.678110    3.091447    0.097939
     11          6           0        1.799952    1.299697   -0.280424
     12          1           0        2.681617    1.742135    0.211430
     13          1           0        1.898586    1.517523   -1.348979
     14          6           0        1.809110   -0.182320   -0.062321
     15          6           0        2.154150   -1.099902   -1.188612
     16          1           0        3.242681   -1.267894   -1.236462
     17          1           0        1.676441   -2.073657   -1.052733
     18          1           0        1.837434   -0.696794   -2.152262
     19          6           0       -1.981849    0.324418    1.363395
     20          1           0       -2.771428    1.079145    1.422389
     21          1           0       -2.408978   -0.642227    1.632174
     22          1           0       -1.211805    0.575928    2.096754
     23          6           0        2.073976   -0.682907    1.321607
     24          1           0        1.699595   -1.701170    1.454634
     25          1           0        3.158892   -0.712674    1.513688
     26          1           0        1.626034   -0.046632    2.087908
     27          6           0       -1.399067    0.245495   -0.054307
     28          8           0       -0.364964   -0.763833   -0.098683
     29          8           0       -1.145281   -2.249628    0.108873
     30          1           0       -0.712348   -2.441434    0.951286
 ---------------------------------------------------------------------

 SCF Done:  E(UHF) =  -501.596127999     A.U. after   19 cycles
 E2 =    -0.1961750066D+01 EUMP2 =    -0.50355787806447D+03
 E2(CBS)=      -2.155083 CBS-Int=       0.064238 OIii=      17.125761

 The electronic state is 2-A.
 Alpha  occ. eigenvalues --  -20.61117 -20.58024 -11.28748 -11.22200 -11.21965
 Alpha  occ. eigenvalues --  -11.21633 -11.21212 -11.21198 -11.20628 -11.20623
 Alpha  occ. eigenvalues --  -11.19771  -1.40044  -1.25043  -1.09694  -1.06355
 Alpha  occ. eigenvalues --   -1.00604  -0.93815  -0.92725  -0.92166  -0.83155
 Alpha  occ. eigenvalues --   -0.75682  -0.72495  -0.67834  -0.65568  -0.63715
 Alpha  occ. eigenvalues --   -0.62168  -0.61502  -0.59975  -0.58639  -0.58463
 Alpha  occ. eigenvalues --   -0.56514  -0.54676  -0.53831  -0.53339  -0.52587
 Alpha  occ. eigenvalues --   -0.51241  -0.50683  -0.49825  -0.49108  -0.48140
 Alpha  occ. eigenvalues --   -0.46393  -0.46129  -0.44709  -0.42710  -0.29083
 Alpha virt. eigenvalues --    0.03969   0.04819   0.05034   0.05377   0.06737
 Alpha virt. eigenvalues --    0.06835   0.07030   0.07221   0.07612   0.09264
 Alpha virt. eigenvalues --    0.09467   0.09660   0.09953   0.10366   0.10792

  Beta  occ. eigenvalues --  -20.60654 -20.57833 -11.28554 -11.22345 -11.21799
  Beta  occ. eigenvalues --  -11.21517 -11.21215 -11.20911 -11.20686 -11.20069
  Beta  occ. eigenvalues --  -11.19125  -1.40012  -1.22140  -1.08295  -1.05703
  Beta  occ. eigenvalues --   -1.00109  -0.93883  -0.92743  -0.92377  -0.82702
  Beta  occ. eigenvalues --   -0.74813  -0.70132  -0.67602  -0.64354  -0.63624
  Beta  occ. eigenvalues --   -0.61609  -0.60209  -0.58975  -0.57833  -0.56690
  Beta  occ. eigenvalues --   -0.55385  -0.54527  -0.53473  -0.52647  -0.51639
  Beta  occ. eigenvalues --   -0.51199  -0.51177  -0.49433  -0.48340  -0.47560
  Beta  occ. eigenvalues --   -0.46035  -0.45410  -0.43749  -0.43362
  Beta virt. eigenvalues --    0.03958   0.04746   0.04962   0.05310   0.06662
  Beta virt. eigenvalues --    0.06756   0.07042   0.07172   0.07589   0.09267
  Beta virt. eigenvalues --    0.09474   0.09652   0.09870   0.10354   0.10763

 Mulliken atomic charges:
              1
     1  C   -0.299269
     2  H    0.078796
     3  H    0.064370
     4  H    0.114470
     5  C   -0.262574
     6  H    0.084844
     7  H    0.075534
     8  C   -0.017315
     9  H    0.039986
    10  H    0.096261
    11  C   -0.585113
    12  H    0.058717
    13  H    0.089291
    14  C    0.767604
    15  C   -0.257401
    16  H    0.056383
    17  H    0.072902
    18  H    0.057461
    19  C   -0.579689
    20  H    0.079041
    21  H    0.086770
    22  H    0.064563
    23  C   -0.584122
    24  H    0.044640
    25  H    0.072589
    26  H    0.064234
    27  C    0.401760
    28  O    0.127161
    29  O   -0.269823
    30  H    0.257930
 Sum of Mulliken atomic charges =   0.00000

 Dipole moment (field-independent basis, Debye):
    X=             -0.2938    Y=              1.1950    Z=              1.2200  Tot=              1.7328
 Quadrupole moment (field-independent basis, Debye-Ang):
   XX=            -71.9034   YY=            -71.2952   ZZ=            -70.4275
   XY=             -1.6868   XZ=             -0.6587   YZ=             -3.9914

    1 imaginary frequencies ignored.
 Normal termination of Gaussian 09 at Thu May  1 11:07:32 2014.
