 Gaussian 09, Revision C.01,
 Gaussian 09:  EM64L-G09RevC.01 23-Sep-2011

 -------------------------------
 #p cbs-qb3 opt=(TS,calcfc) freq
 -------------------------------

 (Enter /usr/caen/gaussian-09revc/g09/l101.exe)
 ------------------------------------
 TS_3_3b using cbs-qb3 to cal. energy
 ------------------------------------
 Charge =  0 Multiplicity = 2

 SCF Done:  E(UB3LYP) =  -504.822144039     A.U. after   21 cycles
 SCF Done:  E(UB3LYP) =  -504.822190541     A.U. after   15 cycles
 SCF Done:  E(UB3LYP) =  -504.822190573     A.U. after   11 cycles
 Optimization completed.
    -- Stationary point found.
 Normal termination of Gaussian 09 at Mon Feb 17 04:12:49 2014.

 ---------------------------------------------------------
 #P Geom=AllCheck Guess=TCheck SCRF=Check B3LYP/CBSB7 Freq
 ---------------------------------------------------------

 Structure from the checkpoint file:  TS_3_3b.chk
 ------------------------------------
 TS_3_3b using cbs-qb3 to cal. energy
 ------------------------------------
 Charge =  0 Multiplicity = 2

 SCF Done:  E(UB3LYP) =  -504.822190573     A.U. after    1 cycles

  Exact polarizability: 136.738   9.570 116.737   2.631   3.013 100.704
 Approx polarizability: 157.302  11.957 175.710  -0.716  11.696 164.781

 ******    1 imaginary frequencies (negative Signs) ******

                     1                      2                      3
                     A                      A                      A
 Frequencies -- -2059.4690                38.7734                53.8344
 Red. masses --     1.1067                 2.7318                 3.3774
 Frc consts  --     2.7657                 0.0024                 0.0058
 IR Inten    --   846.7526                 0.6724                 1.3056

                     4                      5                      6
                     A                      A                      A
 Frequencies --    87.8463               113.2112               137.3715
 Red. masses --     3.1686                 2.8274                 2.3325
 Frc consts  --     0.0144                 0.0214                 0.0259
 IR Inten    --     0.2465                 0.8138                 1.2065

                     7                      8                      9
                     A                      A                      A
 Frequencies --   184.1243               212.0233               220.7580
 Red. masses --     1.2697                 1.4482                 1.0857
 Frc consts  --     0.0254                 0.0384                 0.0312
 IR Inten    --     0.3517                 0.1063                 0.1084

                    10                     11                     12
                     A                      A                      A
 Frequencies --   223.4967               234.2556               252.8679
 Red. masses --     2.3376                 1.3908                 1.1680
 Frc consts  --     0.0688                 0.0450                 0.0440
 IR Inten    --     0.2975                 0.2517                 0.1082

                    13                     14                     15
                     A                      A                      A
 Frequencies --   257.6114               303.9161               324.6108
 Red. masses --     3.8606                 2.7648                 3.1292
 Frc consts  --     0.1510                 0.1505                 0.1943
 IR Inten    --     1.1164                 1.1230                 2.3778

                    16                     17                     18
                     A                      A                      A
 Frequencies --   375.5553               419.3679               422.5131
 Red. masses --     2.2265                 2.5878                 2.1438
 Frc consts  --     0.1850                 0.2681                 0.2255
 IR Inten    --     0.4148                 0.4411                 0.3231

                    19                     20                     21
                     A                      A                      A
 Frequencies --   484.4889               531.0347               566.8334
 Red. masses --     2.5737                 3.3867                 3.1535
 Frc consts  --     0.3559                 0.5627                 0.5970
 IR Inten    --     0.3551                 3.5009                 4.8061

                    22                     23                     24
                     A                      A                      A
 Frequencies --   675.7633               763.1175               830.0619
 Red. masses --     3.6545                 1.7908                 2.1236
 Frc consts  --     0.9832                 0.6144                 0.8621
 IR Inten    --     1.0986                 0.2420                 0.2252

                    25                     26                     27
                     A                      A                      A
 Frequencies --   846.3445               884.1950               899.5983
 Red. masses --     2.7278                 3.8309                 4.2043
 Frc consts  --     1.1512                 1.7646                 2.0046
 IR Inten    --    11.5713                 3.4157                23.7798

                    28                     29                     30
                     A                      A                      A
 Frequencies --   930.2850               936.1814               945.5810
 Red. masses --     1.2070                 1.2620                 2.2432
 Frc consts  --     0.6154                 0.6516                 1.1817
 IR Inten    --     1.1755                 0.1652                 0.7278

                    31                     32                     33
                     A                      A                      A
 Frequencies --   954.3242               963.3068               977.8674
 Red. masses --     1.7768                 1.4454                 1.3857
 Frc consts  --     0.9534                 0.7902                 0.7807
 IR Inten    --     1.5183                 0.1555                 0.4930

                    34                     35                     36
                     A                      A                      A
 Frequencies --   997.8505              1045.0195              1059.6226
 Red. masses --     1.7660                 3.2278                 1.9719
 Frc consts  --     1.0360                 2.0769                 1.3045
 IR Inten    --     7.2603                 2.5794                20.0130

                    37                     38                     39
                     A                      A                      A
 Frequencies --  1112.2587              1120.9625              1140.8925
 Red. masses --     1.8673                 1.2561                 2.0560
 Frc consts  --     1.3610                 0.9299                 1.5767
 IR Inten    --    13.3370                12.0364                 5.0635

                    40                     41                     42
                     A                      A                      A
 Frequencies --  1158.8686              1191.6153              1219.0555
 Red. masses --     1.9289                 1.7654                 1.8663
 Frc consts  --     1.5263                 1.4770                 1.6341
 IR Inten    --     4.5563                 6.5469                 0.3025

                    43                     44                     45
                     A                      A                      A
 Frequencies --  1241.1411              1256.8224              1279.8641
 Red. masses --     1.5615                 1.9272                 1.7872
 Frc consts  --     1.4172                 1.7936                 1.7249
 IR Inten    --     3.1009                22.3257                 1.9046

                    46                     47                     48
                     A                      A                      A
 Frequencies --  1307.5950              1329.0260              1348.9510
 Red. masses --     1.3695                 1.2141                 1.2950
 Frc consts  --     1.3796                 1.2635                 1.3884
 IR Inten    --     2.0436                 0.1923                 0.6384

                    49                     50                     51
                     A                      A                      A
 Frequencies --  1372.1783              1385.7672              1397.8807
 Red. masses --     1.3080                 1.3203                 1.3738
 Frc consts  --     1.4510                 1.4938                 1.5817
 IR Inten    --     1.7177                10.9964                 3.5994

                    52                     53                     54
                     A                      A                      A
 Frequencies --  1400.1055              1402.8994              1412.7156
 Red. masses --     1.4091                 1.2708                 1.2240
 Frc consts  --     1.6275                 1.4736                 1.4393
 IR Inten    --    10.2703                 7.0060                 4.8210

                    55                     56                     57
                     A                      A                      A
 Frequencies --  1423.1023              1471.5184              1474.1788
 Red. masses --     1.2444                 1.0449                 1.0699
 Frc consts  --     1.4849                 1.3331                 1.3699
 IR Inten    --     6.4087                 4.2668                 3.0140

                    58                     59                     60
                     A                      A                      A
 Frequencies --  1483.1725              1489.9837              1491.7730
 Red. masses --     1.0626                 1.0567                 1.0574
 Frc consts  --     1.3772                 1.3822                 1.3864
 IR Inten    --     0.7537                 0.3166                 5.1213

                    61                     62                     63
                     A                      A                      A
 Frequencies --  1493.4696              1501.0004              1502.8702
 Red. masses --     1.0532                 1.0653                 1.0716
 Frc consts  --     1.3840                 1.4141                 1.4260
 IR Inten    --     2.3438                 7.8864                 8.2751

                    64                     65                     66
                     A                      A                      A
 Frequencies --  1506.9602              1513.0464              1712.5886
 Red. masses --     1.0534                 1.0501                 1.0394
 Frc consts  --     1.4095                 1.4164                 1.7961
 IR Inten    --     5.9359                14.3227                20.6216

                    67                     68                     69
                     A                      A                      A
 Frequencies --  2982.2194              2984.6284              2987.6478
 Red. masses --     1.0534                 1.0749                 1.0535
 Frc consts  --     5.5197                 5.6414                 5.5406
 IR Inten    --     5.0029                 1.7259                31.5827

                    70                     71                     72
                     A                      A                      A
 Frequencies --  2997.0960              3013.3557              3014.0730
 Red. masses --     1.0752                 1.0378                 1.0823
 Frc consts  --     5.6905                 5.5522                 5.7929
 IR Inten    --    27.8633                27.6471                21.6666

                    73                     74                     75
                     A                      A                      A
 Frequencies --  3018.6662              3033.8534              3055.8944
 Red. masses --     1.0384                 1.0599                 1.0915
 Frc consts  --     5.5751                 5.7478                 6.0053
 IR Inten    --    40.3547                16.1752                 6.6651

                    76                     77                     78
                     A                      A                      A
 Frequencies --  3063.4126              3067.8980              3072.2749
 Red. masses --     1.0804                 1.0800                 1.0999
 Frc consts  --     5.9737                 5.9888                 6.1167
 IR Inten    --     7.1427                34.7162                 4.3248

                    79                     80                     81
                     A                      A                      A
 Frequencies --  3077.8089              3080.1162              3086.5155
 Red. masses --     1.1020                 1.1002                 1.1017
 Frc consts  --     6.1506                 6.1499                 6.1836
 IR Inten    --    11.5805                92.8361                43.0560

                    82                     83                     84
                     A                      A                      A
 Frequencies --  3089.5605              3110.2175              3111.9336
 Red. masses --     1.1005                 1.0994                 1.1014
 Frc consts  --     6.1890                 6.2658                 6.2844
 IR Inten    --    50.2098                17.7143                12.4930

 - Thermochemistry -
 -------------------
 Temperature   298.150 Kelvin.  Pressure   1.00000 Atm.
 Atom     1 has atomic number  6 and mass  12.00000

 Molecular mass:   159.13850 amu.
 Principal axes and moments of inertia in atomic units:
                           1         2         3
     Eigenvalues --   930.431643689.847304178.97823
           X            0.99989   0.01412   0.00359
           Y           -0.01399   0.99932  -0.03412
           Z           -0.00407   0.03406   0.99941
 This molecule is an asymmetric top.
 Rotational symmetry number  1.
 Warning -- assumption of classical behavior for rotation
           may cause significant error
 Rotational temperatures (Kelvin)      0.09309     0.02347     0.02073
 Rotational constants (GHZ):           1.93968     0.48911     0.43186
    1 imaginary frequencies ignored.
 Zero-point vibrational energy     688708.4 (Joules/Mol)
                                  164.60525 (Kcal/Mol)
 Warning -- explicit consideration of  20 degrees of freedom as
           vibrations may cause significant error
 Vibrational temperatures:     55.79    77.46   126.39   162.89   197.65
          (Kelvin)            264.91   305.05   317.62   321.56   337.04
                              363.82   370.64   437.27   467.04   540.34
                              603.38   607.90   697.07   764.04   815.55
                              972.27  1097.95  1194.27  1217.70  1272.16
                             1294.32  1338.47  1346.95  1360.48  1373.06
                             1385.98  1406.93  1435.68  1503.55  1524.56
                             1600.29  1612.81  1641.49  1667.35  1714.47
                             1753.95  1785.72  1808.28  1841.44  1881.34
                             1912.17  1940.84  1974.26  1993.81  2011.24
                             2014.44  2018.46  2032.58  2047.52  2117.18
                             2121.01  2133.95  2143.75  2146.33  2148.77
                             2159.60  2162.29  2168.18  2176.93  2464.03
                             4290.74  4294.21  4298.55  4312.15  4335.54
                             4336.57  4343.18  4365.03  4396.74  4407.56
                             4414.02  4420.31  4428.27  4431.59  4440.80
                             4445.18  4474.90  4477.37

 Zero-point correction=                           0.262315 (Hartree/Particle)
 Thermal correction to Energy=                    0.276071
 Thermal correction to Enthalpy=                  0.277015
 Thermal correction to Gibbs Free Energy=         0.221479
 Sum of electronic and zero-point Energies=           -504.559875
 Sum of electronic and thermal Energies=              -504.546119
 Sum of electronic and thermal Enthalpies=            -504.545175
 Sum of electronic and thermal Free Energies=         -504.600712

                     E (Thermal)             CV                S
                      KCal/Mol        Cal/Mol-Kelvin    Cal/Mol-Kelvin
 Total                  173.237             50.861            116.887
 Electronic               0.000              0.000              1.377
 Translational            0.889              2.981             41.103
 Rotational               0.889              2.981             31.040
 Vibrational            171.460             44.900             43.367
 Vibration     1          0.594              1.981              5.321
 Vibration     2          0.596              1.976              4.671
 Vibration     3          0.601              1.958              3.707
 Vibration     4          0.607              1.939              3.213
 Vibration     5          0.614              1.916              2.840
 Vibration     6          0.631              1.861              2.286
 Vibration     7          0.643              1.823              2.026
 Vibration     8          0.647              1.809              1.953
 Vibration     9          0.649              1.805              1.931
 Vibration    10          0.654              1.788              1.846
 Vibration    11          0.664              1.758              1.711
 Vibration    12          0.667              1.750              1.678
 Vibration    13          0.695              1.666              1.395
 Vibration    14          0.709              1.626              1.287
 Vibration    15          0.746              1.522              1.057
 Vibration    16          0.782              1.428              0.894
 Vibration    17          0.785              1.421              0.883
 Vibration    18          0.841              1.284              0.698
 Vibration    19          0.886              1.181              0.585
 Vibration    20          0.923              1.103              0.510

 Optimization completed.
    -- Stationary point found.
 Normal termination of Gaussian 09 at Mon Feb 17 04:22:28 2014.

 -----------------------------------------------------------
 #P Geom=AllCheck Guess=TCheck SCRF=Check CCSD(T)/6-31+G(d')
 -----------------------------------------------------------

 Structure from the checkpoint file:  TS_3_3b.chk
 ------------------------------------
 TS_3_3b using cbs-qb3 to cal. energy
 ------------------------------------
 Charge =  0 Multiplicity = 2

 SCF Done:  E(UHF) =  -501.399269994     A.U. after   25 cycles
 E2 =    -0.1585174524D+01 EUMP2 =    -0.50298444451770D+03
 CCSD(T)
 CCSD(T)= -0.50316211190D+03
 3329\MP4SDQ=-503.100135\CCSD=-503.1044492\CCSD(T)=-503.1621119\S2=0.81
 Normal termination of Gaussian 09 at Mon Feb 17 19:17:55 2014.

 -----------------------------------------------------
 #P Geom=AllCheck Guess=TCheck SCRF=Check MP4SDQ/CBSB4
 -----------------------------------------------------

 Structure from the checkpoint file:  TS_3_3b.chk
 ------------------------------------
 TS_3_3b using cbs-qb3 to cal. energy
 ------------------------------------
 Charge =  0 Multiplicity = 2

 SCF Done:  E(UHF) =  -501.428386397     A.U. after   22 cycles
 E2 =    -0.1712232505D+01 EUMP2 =    -0.50314061890257D+03
 Normal termination of Gaussian 09 at Mon Feb 17 19:41:21 2014.

 ----------------------------------------------------------------------
 #P Geom=AllCheck Guess=TCheck SCRF=Check MP2/CBSB3 CBSExtrap=(NMin=10,
 MinPop)
 ----------------------------------------------------------------------

 Structure from the checkpoint file:  TS_3_3b.chk
 ------------------------------------
 TS_3_3b using cbs-qb3 to cal. energy
 ------------------------------------
 Charge =  0 Multiplicity = 2

                         Standard orientation:
 ---------------------------------------------------------------------
 Center     Atomic      Atomic             Coordinates (Angstroms)
 Number     Number       Type             X           Y           Z
 ---------------------------------------------------------------------
      1          6           0        3.520320    0.076190    0.879281
      2          1           0        3.504929   -0.979744    1.155415
      3          1           0        3.499103    0.667316    1.806501
      4          1           0        4.465103    0.296053    0.375444
      5          6           0        2.334168    0.425932    0.009337
      6          1           0        2.323484   -0.484496   -0.979625
      7          6           0       -0.275517    0.353451   -0.109515
      8          1           0       -0.217651    0.271911   -1.199539
      9          1           0       -0.326694    1.419035    0.135139
     10          6           0       -1.526567   -0.373213    0.399731
     11          1           0       -1.616981   -0.229354    1.485765
     12          1           0       -1.383172   -1.446491    0.242217
     13          6           0       -2.844456    0.056487   -0.271137
     14          1           0       -2.717569   -0.067439   -1.355310
     15          6           0       -3.992685   -0.860392    0.172844
     16          1           0       -4.165465   -0.775347    1.251429
     17          1           0       -4.926723   -0.600135   -0.333514
     18          1           0       -3.771824   -1.908677   -0.047139
     19          6           0        2.324741    1.832583   -0.532077
     20          1           0        2.140069    2.559448    0.272568
     21          1           0        3.296494    2.082209   -0.966858
     22          1           0        1.559039    1.985520   -1.294000
     23          6           0       -3.194119    1.527129   -0.001744
     24          1           0       -4.139546    1.797564   -0.480780
     25          1           0       -3.303928    1.709312    1.073390
     26          1           0       -2.429553    2.210240   -0.380306
     27          6           0        1.006448   -0.222842    0.489373
     28          1           0        0.939926   -0.233769    1.585020
     29          8           0        1.197302   -1.608523    0.130320
     30          8           0        1.697317   -1.537115   -1.200617
 ---------------------------------------------------------------------

 SCF Done:  E(UHF) =  -501.566364292     A.U. after   19 cycles
 E2 =    -0.2014905178D+01 EUMP2 =    -0.50358126946982D+03
 E2(CBS)=      -2.212260 CBS-Int=       0.066023 OIii=      17.311620

 The electronic state is 2-A.
 Alpha  occ. eigenvalues --  -20.63552 -20.61076 -11.29503 -11.27209 -11.23346
 Alpha  occ. eigenvalues --  -11.22686 -11.22470 -11.22382 -11.21507 -11.21068
 Alpha  occ. eigenvalues --  -11.20780  -1.48578  -1.20200  -1.11171  -1.09029
 Alpha  occ. eigenvalues --   -1.01756  -0.95476  -0.92794  -0.92112  -0.84844
 Alpha  occ. eigenvalues --   -0.77011  -0.76373  -0.72678  -0.67869  -0.64718
 Alpha  occ. eigenvalues --   -0.63110  -0.61236  -0.60215  -0.58964  -0.58804
 Alpha  occ. eigenvalues --   -0.58130  -0.55931  -0.55077  -0.53968  -0.53376
 Alpha  occ. eigenvalues --   -0.52584  -0.50997  -0.50713  -0.49199  -0.48585
 Alpha  occ. eigenvalues --   -0.45839  -0.45711  -0.45294  -0.42531  -0.38999
 Alpha virt. eigenvalues --    0.03521   0.04503   0.04885   0.05382   0.06285
 Alpha virt. eigenvalues --    0.06556   0.06832   0.07613   0.07801   0.08511
 Alpha virt. eigenvalues --    0.08751   0.09199   0.09587   0.09844   0.11501

  Beta  occ. eigenvalues --  -20.61332 -20.60517 -11.29614 -11.25480 -11.23499
  Beta  occ. eigenvalues --  -11.22826 -11.22471 -11.22381 -11.21509 -11.21068
  Beta  occ. eigenvalues --  -11.20780  -1.45360  -1.14750  -1.09399  -1.07788
  Beta  occ. eigenvalues --   -1.01453  -0.95362  -0.92788  -0.91708  -0.83635
  Beta  occ. eigenvalues --   -0.76542  -0.73676  -0.68260  -0.65712  -0.63795
  Beta  occ. eigenvalues --   -0.62481  -0.60025  -0.59211  -0.58677  -0.57677
  Beta  occ. eigenvalues --   -0.56113  -0.55163  -0.54609  -0.53368  -0.52485
  Beta  occ. eigenvalues --   -0.51097  -0.50079  -0.49571  -0.48107  -0.46524
  Beta  occ. eigenvalues --   -0.45826  -0.45404  -0.43886  -0.41034
  Beta virt. eigenvalues --    0.03407   0.04502   0.04807   0.05380   0.06045
  Beta virt. eigenvalues --    0.06293   0.06806   0.07218   0.07630   0.07893
  Beta virt. eigenvalues --    0.08527   0.08776   0.09301   0.09631   0.10014

 Mulliken atomic charges:
              1
     1  C   -0.295134
     2  H    0.097792
     3  H    0.052854
     4  H    0.105798
     5  C   -0.042387
     6  H    0.195678
     7  C   -0.347156
     8  H    0.147917
     9  H   -0.000627
    10  C   -0.855972
    11  H    0.062702
    12  H    0.092041
    13  C    0.960810
    14  H    0.037700
    15  C   -0.428901
    16  H    0.051781
    17  H    0.100842
    18  H    0.062977
    19  C   -0.462384
    20  H    0.084311
    21  H    0.112834
    22  H    0.090365
    23  C   -0.566794
    24  H    0.088903
    25  H    0.064932
    26  H    0.066846
    27  C    0.712369
    28  H    0.117720
    29  O   -0.072750
    30  O   -0.235066
 Sum of Mulliken atomic charges =   0.00000

 Dipole moment (field-independent basis, Debye):
    X=              0.2948    Y=              3.3188    Z=              1.1226  Tot=              3.5159
 Quadrupole moment (field-independent basis, Debye-Ang):
   XX=            -68.7277   YY=            -77.2704   ZZ=            -71.7183
   XY=              5.7874   XZ=              2.2325   YZ=             -1.8350

    1 imaginary frequencies ignored.
 Normal termination of Gaussian 09 at Mon Feb 17 20:47:50 2014.
