 Gaussian 09, Revision C.01,
 Gaussian 09:  EM64L-G09RevC.01 23-Sep-2011

 -------------------------------
 #p cbs-qb3 opt=(ts,calcfc) freq
 -------------------------------

 (Enter /usr/caen/gaussian-09revc/g09/l101.exe)
 -------------------------------------
 TS_3_C9H18_3 using cbs to cal. energy
 -------------------------------------
 Charge =  0 Multiplicity = 2

 SCF Done:  E(UB3LYP) =  -504.830307185     A.U. after   21 cycles
 SCF Done:  E(UB3LYP) =  -504.830372840     A.U. after   14 cycles
 SCF Done:  E(UB3LYP) =  -504.830375990     A.U. after   12 cycles
 SCF Done:  E(UB3LYP) =  -504.830376118     A.U. after   12 cycles
 SCF Done:  E(UB3LYP) =  -504.830376099     A.U. after    9 cycles
 Optimization completed.
    -- Stationary point found.
 Normal termination of Gaussian 09 at Tue Feb 25 20:22:27 2014.

 ---------------------------------------------------------
 #P Geom=AllCheck Guess=TCheck SCRF=Check B3LYP/CBSB7 Freq
 ---------------------------------------------------------

 Structure from the checkpoint file:  TS_3_C9H18_3.chk
 -------------------------------------
 TS_3_C9H18_3 using cbs to cal. energy
 -------------------------------------
 Charge =  0 Multiplicity = 2

 SCF Done:  E(UB3LYP) =  -504.830376099     A.U. after    1 cycles

  Exact polarizability: 143.687  -4.239 118.509  -4.429   1.154 100.111
 Approx polarizability: 178.805  -9.260 194.676 -16.437   9.076 154.135

 ******    1 imaginary frequencies (negative Signs) ******

                     1                      2                      3
                     A                      A                      A
 Frequencies -- -1003.2697                26.1431                46.4730
 Red. masses --     1.3596                 2.8579                 2.9515
 Frc consts  --     0.8063                 0.0012                 0.0038
 IR Inten    --   196.6181                 0.2954                 0.3153

                     4                      5                      6
                     A                      A                      A
 Frequencies --    59.6566                89.5486               130.0348
 Red. masses --     3.2337                 3.1576                 5.8687
 Frc consts  --     0.0068                 0.0149                 0.0585
 IR Inten    --     0.5793                 0.1517                 1.8941

                     7                      8                      9
                     A                      A                      A
 Frequencies --   157.2417               175.2089               216.0513
 Red. masses --     4.4364                 2.7063                 1.2647
 Frc consts  --     0.0646                 0.0489                 0.0348
 IR Inten    --     2.2766                 0.2253                 0.3291

                    10                     11                     12
                     A                      A                      A
 Frequencies --   218.2859               222.7963               245.3069
 Red. masses --     1.0665                 1.3293                 1.3379
 Frc consts  --     0.0299                 0.0389                 0.0474
 IR Inten    --     0.1968                 1.4254                 2.9341

                    13                     14                     15
                     A                      A                      A
 Frequencies --   260.9291               268.6455               302.3645
 Red. masses --     2.8291                 1.4901                 2.6187
 Frc consts  --     0.1135                 0.0634                 0.1411
 IR Inten    --     8.0858                 1.5821                 1.7543

                    16                     17                     18
                     A                      A                      A
 Frequencies --   368.6875               401.4433               423.2494
 Red. masses --     2.1393                 2.2258                 2.3172
 Frc consts  --     0.1713                 0.2113                 0.2446
 IR Inten    --     2.3073                 0.6954                 0.0998

                    19                     20                     21
                     A                      A                      A
 Frequencies --   463.4765               484.8937               495.8314
 Red. masses --     2.1668                 3.3704                 2.2622
 Frc consts  --     0.2742                 0.4669                 0.3277
 IR Inten    --     6.4728                29.6203                 0.7441

                    22                     23                     24
                     A                      A                      A
 Frequencies --   539.4142               664.2383               808.4656
 Red. masses --     2.8510                 5.9573                 2.5906
 Frc consts  --     0.4888                 1.5486                 0.9976
 IR Inten    --     1.9193                 3.6797                 3.5988

                    25                     26                     27
                     A                      A                      A
 Frequencies --   827.8918               852.3665               919.7340
 Red. masses --     1.3882                 2.4208                 1.5027
 Frc consts  --     0.5606                 1.0362                 0.7490
 IR Inten    --     1.2427                 0.6834                 4.8177

                    28                     29                     30
                     A                      A                      A
 Frequencies --   930.6152               935.5763               944.6740
 Red. masses --     1.2274                 1.2292                 1.7529
 Frc consts  --     0.6263                 0.6339                 0.9217
 IR Inten    --     1.9007                 3.7808                11.3164

                    31                     32                     33
                     A                      A                      A
 Frequencies --   961.2587               964.4158               969.4293
 Red. masses --     1.4332                 1.4632                 1.6145
 Frc consts  --     0.7802                 0.8018                 0.8940
 IR Inten    --     5.1776                 2.6327                 8.6169

                    34                     35                     36
                     A                      A                      A
 Frequencies --   984.6666              1040.9048              1102.8076
 Red. masses --     1.2722                 2.9112                 1.8358
 Frc consts  --     0.7267                 1.8584                 1.3155
 IR Inten    --    10.5425                 2.6001                 1.5281

                    37                     38                     39
                     A                      A                      A
 Frequencies --  1117.0505              1145.1846              1178.9394
 Red. masses --     1.9419                 1.8851                 1.9558
 Frc consts  --     1.4276                 1.4566                 1.6016
 IR Inten    --     4.4386                 4.3627                 2.1644

                    40                     41                     42
                     A                      A                      A
 Frequencies --  1188.9990              1194.9380              1247.3987
 Red. masses --     1.7768                 1.8281                 1.3868
 Frc consts  --     1.4800                 1.5380                 1.2714
 IR Inten    --     8.6007                 1.3484                 4.6551

                    43                     44                     45
                     A                      A                      A
 Frequencies --  1275.3609              1287.5385              1304.6515
 Red. masses --     1.1612                 1.3224                 1.4086
 Frc consts  --     1.1128                 1.2917                 1.4126
 IR Inten    --     6.4747                28.8724                 8.1346

                    46                     47                     48
                     A                      A                      A
 Frequencies --  1314.5633              1321.8994              1334.1780
 Red. masses --     1.9092                 1.7324                 1.4754
 Frc consts  --     1.9439                 1.7836                 1.5474
 IR Inten    --   114.8751                51.1957                35.2153

                    49                     50                     51
                     A                      A                      A
 Frequencies --  1365.7105              1374.6424              1391.0277
 Red. masses --     1.4160                 1.3270                 1.3792
 Frc consts  --     1.5561                 1.4774                 1.5723
 IR Inten    --     2.1433                 1.4496                 1.6849

                    52                     53                     54
                     A                      A                      A
 Frequencies --  1399.1669              1403.7319              1419.6207
 Red. masses --     1.2644                 1.2699                 1.2253
 Frc consts  --     1.4584                 1.4743                 1.4549
 IR Inten    --     7.3244                 8.5835                 6.7172

                    55                     56                     57
                     A                      A                      A
 Frequencies --  1423.4802              1478.9881              1489.9099
 Red. masses --     1.2344                 1.0821                 1.0451
 Frc consts  --     1.4738                 1.3946                 1.3668
 IR Inten    --     8.0417                 1.5905                 4.7451

                    58                     59                     60
                     A                      A                      A
 Frequencies --  1490.6065              1491.2306              1495.7429
 Red. masses --     1.0466                 1.0464                 1.0548
 Frc consts  --     1.3702                 1.3709                 1.3904
 IR Inten    --     0.6421                 2.2666                 3.5469

                    61                     62                     63
                     A                      A                      A
 Frequencies --  1501.8427              1506.3539              1513.2102
 Red. masses --     1.0520                 1.0555                 1.0490
 Frc consts  --     1.3980                 1.4112                 1.4152
 IR Inten    --     7.2716                 3.8065                14.4809

                    64                     65                     66
                     A                      A                      A
 Frequencies --  1513.9003              1559.0568              1592.6228
 Red. masses --     1.0559                 1.5584                 1.7595
 Frc consts  --     1.4258                 2.2318                 2.6295
 IR Inten    --    10.2362                21.4449                30.7236

                    67                     68                     69
                     A                      A                      A
 Frequencies --  2989.5274              3005.0772              3013.0861
 Red. masses --     1.0675                 1.0764                 1.0368
 Frc consts  --     5.6213                 5.7269                 5.5461
 IR Inten    --    12.6267                10.6413                30.5278

                    70                     71                     72
                     A                      A                      A
 Frequencies --  3013.5269              3019.4396              3020.7572
 Red. masses --     1.0815                 1.0408                 1.0357
 Frc consts  --     5.7866                 5.5910                 5.5680
 IR Inten    --     3.1926                35.7535                24.7458

                    73                     74                     75
                     A                      A                      A
 Frequencies --  3027.0660              3038.6844              3072.8310
 Red. masses --     1.0408                 1.0968                 1.0995
 Frc consts  --     5.6191                 5.9669                 6.1170
 IR Inten    --    42.9873                19.2466                 8.2912

                    76                     77                     78
                     A                      A                      A
 Frequencies --  3079.6898              3080.4545              3081.8364
 Red. masses --     1.0993                 1.1005                 1.0908
 Frc consts  --     6.1431                 6.1529                 6.1041
 IR Inten    --    61.2010                 3.3800                 4.9233

                    79                     80                     81
                     A                      A                      A
 Frequencies --  3085.9399              3087.6584              3092.9023
 Red. masses --     1.0992                 1.1003                 1.0977
 Frc consts  --     6.1675                 6.1805                 6.1869
 IR Inten    --    46.2104                65.7448                54.9241

                    82                     83                     84
                     A                      A                      A
 Frequencies --  3099.0710              3125.7050              3139.5298
 Red. masses --     1.1017                 1.0986                 1.0887
 Frc consts  --     6.2342                 6.3241                 6.3223
 IR Inten    --    28.9616                13.1187                15.8435

 - Thermochemistry -
 -------------------
 Temperature   298.150 Kelvin.  Pressure   1.00000 Atm.
 Atom     1 has atomic number  6 and mass  12.00000

 Molecular mass:   159.13850 amu.
 Principal axes and moments of inertia in atomic units:
                           1         2         3
     Eigenvalues --  1136.136603560.684624160.68506
           X            0.99996  -0.00889  -0.00042
           Y            0.00888   0.99981  -0.01726
           Z            0.00058   0.01725   0.99985
 This molecule is an asymmetric top.
 Rotational symmetry number  1.
 Warning -- assumption of classical behavior for rotation
           may cause significant error
 Rotational temperatures (Kelvin)      0.07624     0.02433     0.02082
 Rotational constants (GHZ):           1.58849     0.50685     0.43376
    1 imaginary frequencies ignored.
 Zero-point vibrational energy     687237.0 (Joules/Mol)
                                  164.25359 (Kcal/Mol)
 Warning -- explicit consideration of  21 degrees of freedom as
           vibrations may cause significant error
 Vibrational temperatures:     37.61    66.86    85.83   128.84   187.09
          (Kelvin)            226.24   252.09   310.85   314.06   320.55
                              352.94   375.42   386.52   435.03   530.46
                              577.59   608.96   666.84   697.65   713.39
                              776.10   955.69  1163.20  1191.15  1226.36
                             1323.29  1338.95  1346.08  1359.17  1383.04
                             1387.58  1394.79  1416.71  1497.63  1586.69
                             1607.18  1647.66  1696.23  1710.70  1719.25
                             1794.73  1834.96  1852.48  1877.10  1891.36
                             1901.92  1919.58  1964.95  1977.80  2001.38
                             2013.09  2019.65  2042.51  2048.07  2127.93
                             2143.65  2144.65  2145.55  2152.04  2160.81
                             2167.30  2177.17  2178.16  2243.13  2291.43
                             4301.26  4323.63  4335.15  4335.79  4344.29
                             4346.19  4355.27  4371.98  4421.11  4430.98
                             4432.08  4434.07  4439.97  4442.45  4449.99
                             4458.87  4497.19  4517.08

 Zero-point correction=                           0.261755 (Hartree/Particle)
 Thermal correction to Energy=                    0.276114
 Thermal correction to Enthalpy=                  0.277058
 Thermal correction to Gibbs Free Energy=         0.219387
 Sum of electronic and zero-point Energies=           -504.568621
 Sum of electronic and thermal Energies=              -504.554262
 Sum of electronic and thermal Enthalpies=            -504.553318
 Sum of electronic and thermal Free Energies=         -504.610989

                     E (Thermal)             CV                S
                      KCal/Mol        Cal/Mol-Kelvin    Cal/Mol-Kelvin
 Total                  173.264             51.897            121.378
 Electronic               0.000              0.000              1.377
 Translational            0.889              2.981             41.103
 Rotational               0.889              2.981             31.199
 Vibrational            171.486             45.935             47.699
 Vibration     1          0.593              1.985              6.102
 Vibration     2          0.595              1.979              4.962
 Vibration     3          0.597              1.974              4.469
 Vibration     4          0.602              1.957              3.670
 Vibration     5          0.612              1.923              2.946
 Vibration     6          0.621              1.895              2.583
 Vibration     7          0.627              1.873              2.379
 Vibration     8          0.645              1.817              1.992
 Vibration     9          0.646              1.813              1.973
 Vibration    10          0.648              1.806              1.936
 Vibration    11          0.660              1.771              1.764
 Vibration    12          0.669              1.744              1.656
 Vibration    13          0.673              1.731              1.605
 Vibration    14          0.694              1.669              1.404
 Vibration    15          0.741              1.537              1.085
 Vibration    16          0.767              1.467              0.957
 Vibration    17          0.785              1.420              0.881
 Vibration    18          0.821              1.331              0.756
 Vibration    19          0.841              1.284              0.697
 Vibration    20          0.851              1.259              0.669
 Vibration    21          0.894              1.163              0.567

 Optimization completed.
    -- Stationary point found.
 Normal termination of Gaussian 09 at Tue Feb 25 20:36:53 2014.

 -----------------------------------------------------------
 #P Geom=AllCheck Guess=TCheck SCRF=Check CCSD(T)/6-31+G(d')
 -----------------------------------------------------------

 Structure from the checkpoint file:  TS_3_C9H18_3.chk
 -------------------------------------
 TS_3_C9H18_3 using cbs to cal. energy
 -------------------------------------
 Charge =  0 Multiplicity = 2

 SCF Done:  E(UHF) =  -501.391664503     A.U. after   26 cycles
 E2 =    -0.1599102082D+01 EUMP2 =    -0.50299076658421D+03
 CCSD(T)
 CCSD(T)= -0.50316430350D+03
 12\MP4SDQ=-503.0997904\CCSD=-503.1028354\CCSD(T)=-503.1643035\S2=0.845
 Normal termination of Gaussian 09 at Wed Feb 26 10:53:34 2014.

 -----------------------------------------------------
 #P Geom=AllCheck Guess=TCheck SCRF=Check MP4SDQ/CBSB4
 -----------------------------------------------------

 Structure from the checkpoint file:  TS_3_C9H18_3.chk
 -------------------------------------
 TS_3_C9H18_3 using cbs to cal. energy
 -------------------------------------
 Charge =  0 Multiplicity = 2

 SCF Done:  E(UHF) =  -501.420901450     A.U. after   26 cycles
 E2 =    -0.1724404620D+01 EUMP2 =    -0.50314530607018D+03
 Normal termination of Gaussian 09 at Wed Feb 26 11:34:38 2014.

 ----------------------------------------------------------------------
 #P Geom=AllCheck Guess=TCheck SCRF=Check MP2/CBSB3 CBSExtrap=(NMin=10,
 MinPop)
 ----------------------------------------------------------------------

 Structure from the checkpoint file:  TS_3_C9H18_3.chk
 -------------------------------------
 TS_3_C9H18_3 using cbs to cal. energy
 -------------------------------------
 Charge =  0 Multiplicity = 2

                         Standard orientation:
 ---------------------------------------------------------------------
 Center     Atomic      Atomic             Coordinates (Angstroms)
 Number     Number       Type             X           Y           Z
 ---------------------------------------------------------------------
      1          6           0        3.626837    0.259672   -0.293057
      2          1           0        3.498770    1.330908   -0.139358
      3          1           0        3.745817    0.081945   -1.367163
      4          1           0        4.552664   -0.051973    0.198132
      5          6           0        2.434102   -0.531331    0.260267
      6          1           0        2.334575   -0.318945    1.331742
      7          6           0       -0.114089   -0.309001    0.204302
      8          1           0       -0.191918    0.968309    0.567144
      9          1           0       -0.102141   -0.790720    1.184077
     10          6           0       -1.377197   -0.533331   -0.628166
     11          1           0       -1.503442   -1.609736   -0.808526
     12          1           0       -1.227900   -0.074633   -1.612354
     13          6           0       -2.684219    0.015754   -0.022017
     14          1           0       -2.545807    1.090973    0.149122
     15          6           0       -3.841703   -0.156551   -1.014718
     16          1           0       -4.021250   -1.216519   -1.226481
     17          1           0       -4.769727    0.263395   -0.616733
     18          1           0       -3.629743    0.342011   -1.965126
     19          6           0        2.671806   -2.052148    0.105867
     20          1           0        2.756892   -2.329253   -0.949549
     21          1           0        3.602791   -2.339454    0.602814
     22          1           0        1.856968   -2.633403    0.543266
     23          6           0       -3.023366   -0.639595    1.324237
     24          1           0       -3.142854   -1.723139    1.210742
     25          1           0       -3.960784   -0.243686    1.725005
     26          1           0       -2.248658   -0.464335    2.074803
     27          6           0        1.131125   -0.177468   -0.405009
     28          1           0        1.173024   -0.007708   -1.478558
     29          8           0        1.208415    2.096179   -0.139633
     30          8           0        0.151954    2.212567    0.562979
 ---------------------------------------------------------------------

 SCF Done:  E(UHF) =  -501.557817236     A.U. after   27 cycles
 E2 =    -0.2027006766D+01 EUMP2 =    -0.50358482400162D+03
 E2(CBS)=      -2.222482 CBS-Int=       0.065961 OIii=      17.211095

 The electronic state is 2-A.
 Alpha  occ. eigenvalues --  -20.63980 -20.61975 -11.29563 -11.25353 -11.23361
 Alpha  occ. eigenvalues --  -11.23050 -11.22743 -11.22376 -11.22007 -11.21232
 Alpha  occ. eigenvalues --  -11.21132  -1.55225  -1.12889  -1.11713  -1.08925
 Alpha  occ. eigenvalues --   -1.03425  -0.94319  -0.93114  -0.92747  -0.83610
 Alpha  occ. eigenvalues --   -0.77837  -0.77236  -0.72043  -0.71924  -0.65519
 Alpha  occ. eigenvalues --   -0.64502  -0.63980  -0.61870  -0.59774  -0.59478
 Alpha  occ. eigenvalues --   -0.56927  -0.56199  -0.55193  -0.54440  -0.53528
 Alpha  occ. eigenvalues --   -0.52004  -0.50247  -0.49639  -0.48877  -0.47458
 Alpha  occ. eigenvalues --   -0.46634  -0.46301  -0.45819  -0.45325  -0.37517
 Alpha virt. eigenvalues --    0.03477   0.04530   0.04734   0.05373   0.06163
 Alpha virt. eigenvalues --    0.06390   0.06619   0.07459   0.07946   0.08256
 Alpha virt. eigenvalues --    0.08821   0.09335   0.09456   0.09793   0.10698

  Beta  occ. eigenvalues --  -20.60217 -20.59416 -11.30065 -11.25293 -11.23412
  Beta  occ. eigenvalues --  -11.23078 -11.22738 -11.22062 -11.22017 -11.21232
  Beta  occ. eigenvalues --  -11.21133  -1.47173  -1.13366  -1.09174  -1.03587
  Beta  occ. eigenvalues --   -0.99742  -0.94359  -0.93260  -0.92953  -0.83343
  Beta  occ. eigenvalues --   -0.78012  -0.77001  -0.68910  -0.65395  -0.64186
  Beta  occ. eigenvalues --   -0.62276  -0.61297  -0.59566  -0.59194  -0.56904
  Beta  occ. eigenvalues --   -0.55823  -0.55186  -0.54480  -0.53521  -0.52028
  Beta  occ. eigenvalues --   -0.50266  -0.49772  -0.48881  -0.47871  -0.46799
  Beta  occ. eigenvalues --   -0.46469  -0.45704  -0.40958  -0.34267
  Beta virt. eigenvalues --    0.03477   0.04533   0.04737   0.05375   0.06150
  Beta virt. eigenvalues --    0.06372   0.06607   0.07280   0.07926   0.08252
  Beta virt. eigenvalues --    0.08817   0.09103   0.09443   0.09762   0.09891

 Mulliken atomic charges:
              1
     1  C   -0.367003
     2  H    0.097377
     3  H    0.054853
     4  H    0.091804
     5  C    0.645323
     6  H    0.078632
     7  C   -1.099020
     8  H    0.514154
     9  H    0.154361
    10  C   -0.401932
    11  H    0.076722
    12  H    0.050755
    13  C    0.789840
    14  H    0.056312
    15  C   -0.400783
    16  H    0.056388
    17  H    0.086350
    18  H    0.057993
    19  C   -0.635197
    20  H    0.074537
    21  H    0.087112
    22  H    0.085365
    23  C   -0.588867
    24  H    0.063601
    25  H    0.096047
    26  H    0.062665
    27  C    0.365271
    28  H    0.239346
    29  O   -0.050278
    30  O   -0.341725
 Sum of Mulliken atomic charges =   0.00000

 Dipole moment (field-independent basis, Debye):
    X=              0.6074    Y=             -3.9011    Z=             -0.5709  Tot=              3.9891
 Quadrupole moment (field-independent basis, Debye-Ang):
   XX=            -67.5729   YY=            -81.7044   ZZ=            -70.4794
   XY=             -3.8742   XZ=             -0.0732   YZ=             -1.5136

    1 imaginary frequencies ignored.
 Normal termination of Gaussian 09 at Wed Feb 26 15:01:08 2014.
