 Gaussian 09, Revision C.01,
 Gaussian 09:  EM64L-G09RevC.01 23-Sep-2011

 -------------------------------
 #p cbs-qb3 opt=(TS,calcfc) freq
 -------------------------------

 (Enter /usr/caen/gaussian-09revc/g09/l101.exe)
 ------------------------------------
 TS_3_3e using cbs-qb3 to cal. energy
 ------------------------------------
 Charge =  0 Multiplicity = 2

 SCF Done:  E(UB3LYP) =  -504.832915037     A.U. after   18 cycles
 SCF Done:  E(UB3LYP) =  -504.832950290     A.U. after   14 cycles
 SCF Done:  E(UB3LYP) =  -504.832949980     A.U. after   10 cycles
 Optimization completed.
    -- Stationary point found.
 Normal termination of Gaussian 09 at Mon Feb 17 03:28:00 2014.

 ---------------------------------------------------------
 #P Geom=AllCheck Guess=TCheck SCRF=Check B3LYP/CBSB7 Freq
 ---------------------------------------------------------

 Structure from the checkpoint file:  TS_3_3e.chk
 ------------------------------------
 TS_3_3e using cbs-qb3 to cal. energy
 ------------------------------------
 Charge =  0 Multiplicity = 2

 SCF Done:  E(UB3LYP) =  -504.832949980     A.U. after    1 cycles

  Exact polarizability: 142.207  -4.299 109.085  -0.430   3.534 102.537
 Approx polarizability: 183.637 -10.461 163.627   2.547   8.364 154.697

 ******    1 imaginary frequencies (negative Signs) ******

                     1                      2                      3
                     A                      A                      A
 Frequencies -- -1649.2983                42.3909                54.4447
 Red. masses --     1.1118                 2.6927                 2.7732
 Frc consts  --     1.7819                 0.0029                 0.0048
 IR Inten    --   483.2919                 0.0564                 0.0991

                     4                      5                      6
                     A                      A                      A
 Frequencies --    69.8586               102.8716               190.5676
 Red. masses --     2.7925                 3.9760                 2.8303
 Frc consts  --     0.0080                 0.0248                 0.0606
 IR Inten    --     0.0101                 1.7112                 2.8491

                     7                      8                      9
                     A                      A                      A
 Frequencies --   206.9231               223.8032               228.5191
 Red. masses --     1.7528                 1.2696                 1.1376
 Frc consts  --     0.0442                 0.0375                 0.0350
 IR Inten    --     0.3919                 0.4305                 0.1208

                    10                     11                     12
                     A                      A                      A
 Frequencies --   232.1702               256.5751               276.3628
 Red. masses --     1.1626                 1.4633                 2.1040
 Frc consts  --     0.0369                 0.0568                 0.0947
 IR Inten    --     0.0578                 0.0657                 0.4511

                    13                     14                     15
                     A                      A                      A
 Frequencies --   323.0375               352.5144               358.9095
 Red. masses --     2.2722                 2.4828                 2.6422
 Frc consts  --     0.1397                 0.1818                 0.2005
 IR Inten    --     1.3281                 0.0366                 1.4055

                    16                     17                     18
                     A                      A                      A
 Frequencies --   372.7942               404.2054               434.7344
 Red. masses --     2.5429                 2.7046                 2.7313
 Frc consts  --     0.2082                 0.2603                 0.3041
 IR Inten    --     1.8128                 0.9132                 1.3689

                    19                     20                     21
                     A                      A                      A
 Frequencies --   477.8752               548.9703               601.6840
 Red. masses --     2.6428                 4.2119                 3.4607
 Frc consts  --     0.3556                 0.7479                 0.7382
 IR Inten    --     3.4446                 1.6120                 2.0387

                    22                     23                     24
                     A                      A                      A
 Frequencies --   688.1686               774.9722               834.1975
 Red. masses --     2.5185                 2.3115                 1.9602
 Frc consts  --     0.7027                 0.8179                 0.8037
 IR Inten    --     0.1182                 0.8356                 4.8239

                    25                     26                     27
                     A                      A                      A
 Frequencies --   854.9989               877.4210               910.4332
 Red. masses --     2.6048                 2.9329                 1.7231
 Frc consts  --     1.1219                 1.3304                 0.8415
 IR Inten    --    10.2722                 9.1133                 0.9329

                    28                     29                     30
                     A                      A                      A
 Frequencies --   923.0045               932.4299               936.8538
 Red. masses --     2.6633                 1.2705                 1.2594
 Frc consts  --     1.3368                 0.6508                 0.6513
 IR Inten    --     8.2495                 0.4206                 0.6443

                    31                     32                     33
                     A                      A                      A
 Frequencies --   948.2124               960.8780               967.8589
 Red. masses --     1.6979                 1.5467                 1.6741
 Frc consts  --     0.8995                 0.8414                 0.9239
 IR Inten    --    12.5926                 1.6919                 1.9937

                    34                     35                     36
                     A                      A                      A
 Frequencies --   990.3708              1013.5040              1065.9856
 Red. masses --     1.8731                 3.5841                 2.7371
 Frc consts  --     1.0824                 2.1691                 1.8325
 IR Inten    --    10.8584                18.9901                10.1380

                    37                     38                     39
                     A                      A                      A
 Frequencies --  1107.8863              1120.4291              1140.9443
 Red. masses --     1.4250                 2.3007                 2.2057
 Frc consts  --     1.0305                 1.7017                 1.6917
 IR Inten    --     6.1590                 3.6707                 0.2887

                    40                     41                     42
                     A                      A                      A
 Frequencies --  1168.1665              1180.3609              1183.6963
 Red. masses --     1.1706                 1.8288                 1.9091
 Frc consts  --     0.9412                 1.5012                 1.5760
 IR Inten    --     7.8045                 5.1645                10.6172

                    43                     44                     45
                     A                      A                      A
 Frequencies --  1195.6081              1241.3951              1265.2951
 Red. masses --     1.9509                 1.3976                 1.3612
 Frc consts  --     1.6431                 1.2690                 1.2839
 IR Inten    --     0.4596                28.9374                10.9185

                    46                     47                     48
                     A                      A                      A
 Frequencies --  1311.7941              1328.5916              1340.1485
 Red. masses --     1.3421                 1.2890                 1.3084
 Frc consts  --     1.3608                 1.3405                 1.3845
 IR Inten    --     2.4316                 1.7338                 2.7780

                    49                     50                     51
                     A                      A                      A
 Frequencies --  1348.0591              1352.1453              1390.1077
 Red. masses --     1.2891                 1.3696                 1.3547
 Frc consts  --     1.3803                 1.4753                 1.5423
 IR Inten    --     0.8659                 0.5230                 3.1440

                    52                     53                     54
                     A                      A                      A
 Frequencies --  1392.8045              1400.3923              1404.8822
 Red. masses --     1.3122                 1.3081                 1.2488
 Frc consts  --     1.4998                 1.5114                 1.4522
 IR Inten    --     2.5742                 2.3305                10.6898

                    55                     56                     57
                     A                      A                      A
 Frequencies --  1421.6547              1426.6763              1473.2990
 Red. masses --     1.2303                 1.2265                 1.0933
 Frc consts  --     1.4650                 1.4708                 1.3982
 IR Inten    --     6.0171                11.0790                 1.3956

                    58                     59                     60
                     A                      A                      A
 Frequencies --  1489.4149              1490.5714              1492.0528
 Red. masses --     1.0443                 1.0476                 1.0475
 Frc consts  --     1.3650                 1.3714                 1.3739
 IR Inten    --     0.1444                 2.4583                 5.6749

                    61                     62                     63
                     A                      A                      A
 Frequencies --  1495.7727              1504.8187              1507.9269
 Red. masses --     1.0423                 1.0483                 1.0550
 Frc consts  --     1.3739                 1.3987                 1.4134
 IR Inten    --     5.0534                 8.7320                 2.6119

                    64                     65                     66
                     A                      A                      A
 Frequencies --  1510.9842              1516.4628              1579.6908
 Red. masses --     1.0570                 1.0483                 1.0589
 Frc consts  --     1.4218                 1.4204                 1.5569
 IR Inten    --     9.1483                13.7877                16.7191

                    67                     68                     69
                     A                      A                      A
 Frequencies --  3015.9595              3017.6226              3018.4369
 Red. masses --     1.0769                 1.0358                 1.0396
 Frc consts  --     5.7714                 5.5572                 5.5808
 IR Inten    --     4.0445                27.9584                 6.9462

                    70                     71                     72
                     A                      A                      A
 Frequencies --  3022.1741              3022.3493              3025.9670
 Red. masses --     1.0397                 1.0434                 1.0650
 Frc consts  --     5.5947                 5.6153                 5.7453
 IR Inten    --    46.3079                22.1550                17.3402

                    73                     74                     75
                     A                      A                      A
 Frequencies --  3036.2112              3055.8409              3069.2261
 Red. masses --     1.0806                 1.0826                 1.0891
 Frc consts  --     5.8694                 5.9564                 6.0446
 IR Inten    --    24.7906                16.1787                 7.2181

                    76                     77                     78
                     A                      A                      A
 Frequencies --  3077.8651              3078.7457              3085.1777
 Red. masses --     1.0988                 1.1017                 1.1000
 Frc consts  --     6.1332                 6.1529                 6.1689
 IR Inten    --     6.7692                 0.9928                18.0535

                    79                     80                     81
                     A                      A                      A
 Frequencies --  3086.8704              3089.3278              3091.0295
 Red. masses --     1.0968                 1.0994                 1.0992
 Frc consts  --     6.1575                 6.1823                 6.1875
 IR Inten    --    20.6069                84.4401                91.3719

                    82                     83                     84
                     A                      A                      A
 Frequencies --  3093.5432              3094.4912              3126.7155
 Red. masses --     1.1003                 1.1014                 1.0981
 Frc consts  --     6.2039                 6.2140                 6.3252
 IR Inten    --    38.2265                17.6827                13.7504

 - Thermochemistry -
 -------------------
 Temperature   298.150 Kelvin.  Pressure   1.00000 Atm.
 Atom     1 has atomic number  6 and mass  12.00000

 Molecular mass:   159.13850 amu.
 Principal axes and moments of inertia in atomic units:
                           1         2         3
     Eigenvalues --  1226.866702654.774153040.74972
           X            0.99981   0.01891  -0.00405
           Y           -0.01881   0.99954   0.02374
           Z            0.00450  -0.02366   0.99971
 This molecule is an asymmetric top.
 Rotational symmetry number  1.
 Warning -- assumption of classical behavior for rotation
           may cause significant error
 Rotational temperatures (Kelvin)      0.07060     0.03263     0.02848
 Rotational constants (GHZ):           1.47102     0.67981     0.59352
    1 imaginary frequencies ignored.
 Zero-point vibrational energy     689815.1 (Joules/Mol)
                                  164.86978 (Kcal/Mol)
 Warning -- explicit consideration of  20 degrees of freedom as
           vibrations may cause significant error
 Vibrational temperatures:     60.99    78.33   100.51   148.01   274.18
          (Kelvin)            297.72   322.00   328.79   334.04   369.15
                              397.62   464.78   507.19   516.39   536.37
                              581.56   625.49   687.56   789.84   865.69
                              990.12  1115.01  1200.22  1230.15  1262.41
                             1309.91  1328.00  1341.56  1347.92  1364.26
                             1382.49  1392.53  1424.92  1458.20  1533.71
                             1594.00  1612.05  1641.56  1680.73  1698.27
                             1703.07  1720.21  1786.09  1820.48  1887.38
                             1911.54  1928.17  1939.55  1945.43  2000.05
                             2003.93  2014.85  2021.31  2045.44  2052.67
                             2119.75  2142.93  2144.60  2146.73  2152.08
                             2165.10  2169.57  2173.97  2181.85  2272.82
                             4339.29  4341.68  4342.85  4348.23  4348.48
                             4353.69  4368.43  4396.67  4415.93  4428.36
                             4429.62  4438.88  4441.31  4444.85  4447.30
                             4450.91  4452.28  4498.64

 Zero-point correction=                           0.262737 (Hartree/Particle)
 Thermal correction to Energy=                    0.276118
 Thermal correction to Enthalpy=                  0.277062
 Thermal correction to Gibbs Free Energy=         0.222537
 Sum of electronic and zero-point Energies=           -504.570213
 Sum of electronic and thermal Energies=              -504.556832
 Sum of electronic and thermal Enthalpies=            -504.555888
 Sum of electronic and thermal Free Energies=         -504.610413

                     E (Thermal)             CV                S
                      KCal/Mol        Cal/Mol-Kelvin    Cal/Mol-Kelvin
 Total                  173.267             50.439            114.758
 Electronic               0.000              0.000              1.377
 Translational            0.889              2.981             41.103
 Rotational               0.889              2.981             30.672
 Vibrational            171.489             44.477             41.605
 Vibration     1          0.595              1.980              5.144
 Vibration     2          0.596              1.976              4.649
 Vibration     3          0.598              1.968              4.157
 Vibration     4          0.605              1.947              3.399
 Vibration     5          0.634              1.853              2.222
 Vibration     6          0.641              1.830              2.071
 Vibration     7          0.649              1.805              1.928
 Vibration     8          0.651              1.798              1.891
 Vibration     9          0.653              1.792              1.862
 Vibration    10          0.666              1.752              1.685
 Vibration    11          0.678              1.717              1.556
 Vibration    12          0.708              1.629              1.295
 Vibration    13          0.729              1.570              1.155
 Vibration    14          0.734              1.557              1.127
 Vibration    15          0.744              1.528              1.068
 Vibration    16          0.769              1.461              0.947
 Vibration    17          0.795              1.395              0.843
 Vibration    18          0.834              1.299              0.716
 Vibration    19          0.904              1.142              0.546
 Vibration    20          0.960              1.028              0.447

 Optimization completed.
    -- Stationary point found.
 Normal termination of Gaussian 09 at Mon Feb 17 03:43:33 2014.

 -----------------------------------------------------------
 #P Geom=AllCheck Guess=TCheck SCRF=Check CCSD(T)/6-31+G(d')
 -----------------------------------------------------------

 Structure from the checkpoint file:  TS_3_3e.chk
 ------------------------------------
 TS_3_3e using cbs-qb3 to cal. energy
 ------------------------------------
 Charge =  0 Multiplicity = 2

 SCF Done:  E(UHF) =  -501.407304405     A.U. after   22 cycles
 E2 =    -0.1590761979D+01 EUMP2 =    -0.50299806638377D+03
 CCSD(T)
 CCSD(T)= -0.50317300088D+03
 0868186\MP4SDQ=-503.1118037\CCSD=-503.1150069\CCSD(T)=-503.1730009\S2=
 Normal termination of Gaussian 09 at Mon Feb 17 17:13:20 2014.

 -----------------------------------------------------
 #P Geom=AllCheck Guess=TCheck SCRF=Check MP4SDQ/CBSB4
 -----------------------------------------------------

 Structure from the checkpoint file:  TS_3_3e.chk
 ------------------------------------
 TS_3_3e using cbs-qb3 to cal. energy
 ------------------------------------
 Charge =  0 Multiplicity = 2

 SCF Done:  E(UHF) =  -501.437471968     A.U. after   19 cycles
 E2 =    -0.1717576319D+01 EUMP2 =    -0.50315504828733D+03
 Normal termination of Gaussian 09 at Mon Feb 17 17:47:32 2014.

 ----------------------------------------------------------------------
 #P Geom=AllCheck Guess=TCheck SCRF=Check MP2/CBSB3 CBSExtrap=(NMin=10,
 MinPop)
 ----------------------------------------------------------------------

 Structure from the checkpoint file:  TS_3_3e.chk
 ------------------------------------
 TS_3_3e using cbs-qb3 to cal. energy
 ------------------------------------
 Charge =  0 Multiplicity = 2

                         Standard orientation:
 ---------------------------------------------------------------------
 Center     Atomic      Atomic             Coordinates (Angstroms)
 Number     Number       Type             X           Y           Z
 ---------------------------------------------------------------------
      1          6           0        2.991933   -0.002139   -1.008812
      2          1           0        2.890369   -1.067354   -1.214755
      3          1           0        3.809272    0.128463   -0.290887
      4          1           0        3.278195    0.503580   -1.935043
      5          6           0        1.682438    0.584600   -0.463342
      6          1           0        0.902965    0.415414   -1.211102
      7          6           0       -0.130608    0.214023    1.425021
      8          1           0       -0.246525    1.303205    1.415470
      9          1           0       -0.115426   -0.099866    2.470579
     10          6           0       -1.286316   -0.459080    0.707751
     11          1           0       -1.930973   -1.054771    1.358616
     12          1           0       -0.569658   -1.447792    0.080584
     13          6           0       -2.055461    0.289262   -0.366968
     14          1           0       -1.338703    0.846897   -0.981519
     15          6           0       -2.819834   -0.676774   -1.284770
     16          1           0       -3.535058   -1.275411   -0.710729
     17          1           0       -3.380594   -0.130597   -2.048357
     18          1           0       -2.138234   -1.363918   -1.792348
     19          6           0        1.822981    2.095967   -0.229801
     20          1           0        2.567701    2.307812    0.545339
     21          1           0        2.155655    2.589872   -1.146483
     22          1           0        0.884158    2.567674    0.070531
     23          6           0       -3.020815    1.312565    0.268418
     24          1           0       -3.542597    1.881607   -0.506849
     25          1           0       -3.775366    0.805813    0.878412
     26          1           0       -2.494258    2.024578    0.909347
     27          6           0        1.270402   -0.143100    0.832133
     28          1           0        2.031689    0.049853    1.596757
     29          8           0        1.315634   -1.570984    0.710394
     30          8           0        0.411750   -1.963641   -0.306062
 ---------------------------------------------------------------------

 SCF Done:  E(UHF) =  -501.574892649     A.U. after   17 cycles
 E2 =    -0.2021216239D+01 EUMP2 =    -0.50359610888796D+03
 E2(CBS)=      -2.219064 CBS-Int=       0.066094 OIii=      17.327864

 The electronic state is 2-A.
 Alpha  occ. eigenvalues --  -20.61946 -20.60674 -11.28763 -11.25847 -11.24253
 Alpha  occ. eigenvalues --  -11.23595 -11.22916 -11.22585 -11.21940 -11.21896
 Alpha  occ. eigenvalues --  -11.20480  -1.47659  -1.20370  -1.12243  -1.07584
 Alpha  occ. eigenvalues --   -1.02806  -0.94135  -0.93026  -0.91556  -0.84902
 Alpha  occ. eigenvalues --   -0.78956  -0.77600  -0.72232  -0.66497  -0.64083
 Alpha  occ. eigenvalues --   -0.63181  -0.62195  -0.60406  -0.59663  -0.58248
 Alpha  occ. eigenvalues --   -0.57344  -0.55186  -0.54681  -0.54209  -0.53594
 Alpha  occ. eigenvalues --   -0.52206  -0.51099  -0.49673  -0.49190  -0.48417
 Alpha  occ. eigenvalues --   -0.47329  -0.46634  -0.45915  -0.42979  -0.36797
 Alpha virt. eigenvalues --    0.03629   0.04650   0.04719   0.05384   0.06226
 Alpha virt. eigenvalues --    0.06580   0.06715   0.07379   0.08029   0.08918
 Alpha virt. eigenvalues --    0.09141   0.09486   0.09691   0.10035   0.11187

  Beta  occ. eigenvalues --  -20.60736 -20.59503 -11.28648 -11.24414 -11.23930
  Beta  occ. eigenvalues --  -11.23768 -11.22921 -11.22437 -11.21898 -11.21895
  Beta  occ. eigenvalues --  -11.20476  -1.44965  -1.16160  -1.10298  -1.07191
  Beta  occ. eigenvalues --   -1.01889  -0.93775  -0.92958  -0.89258  -0.84186
  Beta  occ. eigenvalues --   -0.77123  -0.76404  -0.68609  -0.65750  -0.63001
  Beta  occ. eigenvalues --   -0.62658  -0.61817  -0.59674  -0.57752  -0.56901
  Beta  occ. eigenvalues --   -0.55637  -0.54749  -0.54437  -0.53536  -0.52533
  Beta  occ. eigenvalues --   -0.50450  -0.49432  -0.48638  -0.48267  -0.47525
  Beta  occ. eigenvalues --   -0.46331  -0.45775  -0.44892  -0.41134
  Beta virt. eigenvalues --    0.03637   0.04572   0.04730   0.05292   0.06141
  Beta virt. eigenvalues --    0.06502   0.06710   0.06919   0.07804   0.08440
  Beta virt. eigenvalues --    0.08931   0.09190   0.09574   0.09717   0.10066

 Mulliken atomic charges:
              1
     1  C   -0.382035
     2  H    0.093820
     3  H    0.062164
     4  H    0.073471
     5  C    0.601534
     6  H    0.039305
     7  C   -0.242418
     8  H    0.026597
     9  H    0.138925
    10  C   -0.416816
    11  H    0.163036
    12  H    0.391002
    13  C    0.563071
    14  H    0.049264
    15  C   -0.409962
    16  H    0.064707
    17  H    0.084277
    18  H    0.069791
    19  C   -0.613454
    20  H    0.066779
    21  H    0.087756
    22  H    0.061795
    23  C   -0.565666
    24  H    0.081443
    25  H    0.069132
    26  H    0.061790
    27  C    0.074377
    28  H    0.126410
    29  O   -0.103883
    30  O   -0.316209
 Sum of Mulliken atomic charges =   0.00000

 Dipole moment (field-independent basis, Debye):
    X=             -1.7718    Y=              3.1780    Z=              0.6206  Tot=              3.6911
 Quadrupole moment (field-independent basis, Debye-Ang):
   XX=            -69.6500   YY=            -79.0562   ZZ=            -70.0952
   XY=              4.1396   XZ=              0.0053   YZ=             -0.1854

    1 imaginary frequencies ignored.
 Normal termination of Gaussian 09 at Mon Feb 17 20:01:47 2014.
