 Gaussian 09, Revision C.01,
 Gaussian 09:  EM64L-G09RevC.01 23-Sep-2011

 -------------------------------
 #p cbs-qb3 opt=(TS,calcfc) freq
 -------------------------------

 (Enter /usr/caen/gaussian-09revc/g09/l101.exe)
 ------------------------------------
 TS_3_3f using cbs-qb3 to cal. energy
 ------------------------------------
 Charge =  0 Multiplicity = 2

 SCF Done:  E(UB3LYP) =  -504.841079255     A.U. after   17 cycles
 SCF Done:  E(UB3LYP) =  -504.841102626     A.U. after   12 cycles
 SCF Done:  E(UB3LYP) =  -504.841102773     A.U. after    7 cycles
 Optimization completed.
    -- Stationary point found.
 Normal termination of Gaussian 09 at Wed Feb 19 14:25:01 2014.

 ---------------------------------------------------------
 #P Geom=AllCheck Guess=TCheck SCRF=Check B3LYP/CBSB7 Freq
 ---------------------------------------------------------

 Structure from the checkpoint file:  TS_3_3f.chk
 ------------------------------------
 TS_3_3f using cbs-qb3 to cal. energy
 ------------------------------------
 Charge =  0 Multiplicity = 2

 SCF Done:  E(UB3LYP) =  -504.841102773     A.U. after    1 cycles

  Exact polarizability: 156.933   7.087 108.000   0.630  -0.925 100.600
 Approx polarizability: 187.559  15.858 160.521   2.852  -4.729 158.977

 ******    1 imaginary frequencies (negative Signs) ******

                     1                      2                      3
                     A                      A                      A
 Frequencies -- -1693.8505                53.1786                61.4692
 Red. masses --     1.1254                 3.3565                 2.5799
 Frc consts  --     1.9025                 0.0056                 0.0057
 IR Inten    --  1170.6799                 0.4461                 0.0688

                     4                      5                      6
                     A                      A                      A
 Frequencies --    95.1593               164.1330               174.4868
 Red. masses --     2.8967                 2.8830                 2.9512
 Frc consts  --     0.0155                 0.0458                 0.0529
 IR Inten    --     0.3396                 1.1363                 1.5007

                     7                      8                      9
                     A                      A                      A
 Frequencies --   196.1623               204.8664               217.4651
 Red. masses --     1.0592                 1.0779                 1.5189
 Frc consts  --     0.0240                 0.0267                 0.0423
 IR Inten    --     0.0925                 0.0025                 0.2190

                    10                     11                     12
                     A                      A                      A
 Frequencies --   219.4755               255.1826               287.1020
 Red. masses --     1.1447                 1.6376                 2.9877
 Frc consts  --     0.0325                 0.0628                 0.1451
 IR Inten    --     0.0934                 0.3843                 2.5045

                    13                     14                     15
                     A                      A                      A
 Frequencies --   302.1696               327.6431               365.2615
 Red. masses --     2.4986                 3.1571                 2.2771
 Frc consts  --     0.1344                 0.1997                 0.1790
 IR Inten    --     1.7025                 5.3051                 0.0515

                    16                     17                     18
                     A                      A                      A
 Frequencies --   379.3592               402.7215               416.6945
 Red. masses --     2.2790                 2.6244                 2.6198
 Frc consts  --     0.1932                 0.2508                 0.2680
 IR Inten    --     0.4297                 0.7348                 1.0714

                    19                     20                     21
                     A                      A                      A
 Frequencies --   460.0433               516.8301               584.8836
 Red. masses --     3.3287                 3.3939                 3.4388
 Frc consts  --     0.4151                 0.5341                 0.6931
 IR Inten    --     1.8585                 1.9467                 0.3210

                    22                     23                     24
                     A                      A                      A
 Frequencies --   637.8617               760.7470               800.1981
 Red. masses --     2.8518                 2.5237                 2.5424
 Frc consts  --     0.6836                 0.8605                 0.9591
 IR Inten    --     0.1295                 1.0128                 4.3880

                    25                     26                     27
                     A                      A                      A
 Frequencies --   865.9537               883.8251               931.8055
 Red. masses --     2.1528                 2.4699                 1.4801
 Frc consts  --     0.9511                 1.1368                 0.7572
 IR Inten    --     3.5526                 7.9081                 6.9077

                    28                     29                     30
                     A                      A                      A
 Frequencies --   938.0299               940.5233               950.2118
 Red. masses --     1.3957                 1.3463                 3.3516
 Frc consts  --     0.7235                 0.7017                 1.7829
 IR Inten    --     2.6759                 2.9746                 4.8606

                    31                     32                     33
                     A                      A                      A
 Frequencies --   963.4786               973.1649               982.3630
 Red. masses --     1.5445                 1.4374                 1.6535
 Frc consts  --     0.8447                 0.8021                 0.9401
 IR Inten    --     1.0512                 3.4081                 7.3962

                    34                     35                     36
                     A                      A                      A
 Frequencies --  1010.6617              1017.8837              1064.3949
 Red. masses --     2.7308                 2.5944                 2.2922
 Frc consts  --     1.6434                 1.5837                 1.5300
 IR Inten    --    30.7349                13.0285                 2.7670

                    37                     38                     39
                     A                      A                      A
 Frequencies --  1100.9350              1133.8782              1146.8088
 Red. masses --     1.4480                 1.5160                 1.8827
 Frc consts  --     1.0341                 1.1483                 1.4589
 IR Inten    --     8.9218                 9.5412                21.0044

                    40                     41                     42
                     A                      A                      A
 Frequencies --  1159.2580              1191.6385              1212.3073
 Red. masses --     1.6600                 1.7077                 2.2158
 Frc consts  --     1.3144                 1.4287                 1.9187
 IR Inten    --    12.5666                 3.8032                 0.4611

                    43                     44                     45
                     A                      A                      A
 Frequencies --  1241.3970              1255.6457              1278.4814
 Red. masses --     2.2506                 1.4630                 1.6302
 Frc consts  --     2.0435                 1.3590                 1.5699
 IR Inten    --     7.2164                 1.1170                 3.6946

                    46                     47                     48
                     A                      A                      A
 Frequencies --  1311.5004              1338.3775              1357.8624
 Red. masses --     1.3306                 1.2830                 1.3787
 Frc consts  --     1.3485                 1.3540                 1.4977
 IR Inten    --     1.0712                 3.8365                 5.7968

                    49                     50                     51
                     A                      A                      A
 Frequencies --  1367.9758              1382.5281              1388.7353
 Red. masses --     1.3762                 1.3054                 1.4646
 Frc consts  --     1.5174                 1.4701                 1.6642
 IR Inten    --     0.7469                 2.9349                 2.1021

                    52                     53                     54
                     A                      A                      A
 Frequencies --  1397.7002              1401.3844              1415.2164
 Red. masses --     1.2444                 1.2489                 1.2221
 Frc consts  --     1.4324                 1.4451                 1.4421
 IR Inten    --     9.4513                11.4306                 2.0804

                    55                     56                     57
                     A                      A                      A
 Frequencies --  1422.4661              1469.9561              1479.5977
 Red. masses --     1.2265                 1.0662                 1.0672
 Frc consts  --     1.4621                 1.3573                 1.3765
 IR Inten    --    10.4277                 1.0951                 1.2063

                    58                     59                     60
                     A                      A                      A
 Frequencies --  1481.8338              1486.4088              1491.6072
 Red. masses --     1.0551                 1.0675                 1.0495
 Frc consts  --     1.3650                 1.3896                 1.3757
 IR Inten    --     1.9614                 7.5562                 2.7792

                    61                     62                     63
                     A                      A                      A
 Frequencies --  1493.2820              1494.9459              1499.0797
 Red. masses --     1.0512                 1.0498                 1.0657
 Frc consts  --     1.3811                 1.3823                 1.4110
 IR Inten    --     5.3239                 0.7767                 4.3089

                    64                     65                     66
                     A                      A                      A
 Frequencies --  1507.5552              1514.9181              1515.4185
 Red. masses --     1.0501                 1.0578                 1.0566
 Frc consts  --     1.4061                 1.4303                 1.4297
 IR Inten    --     4.2534                20.8113                 5.7038

                    67                     68                     69
                     A                      A                      A
 Frequencies --  2978.2225              2980.5498              2987.3857
 Red. masses --     1.0526                 1.0621                 1.0596
 Frc consts  --     5.5008                 5.5593                 5.5715
 IR Inten    --    12.0769                 6.8911                93.4946

                    70                     71                     72
                     A                      A                      A
 Frequencies --  3011.1017              3015.8387              3017.7709
 Red. masses --     1.0822                 1.0404                 1.0514
 Frc consts  --     5.7809                 5.5753                 5.6415
 IR Inten    --     7.2273                17.9463                18.8712

                    73                     74                     75
                     A                      A                      A
 Frequencies --  3031.5490              3039.4551              3059.8296
 Red. masses --     1.0730                 1.0637                 1.0870
 Frc consts  --     5.8102                 5.7896                 5.9962
 IR Inten    --    39.3022                11.5253                 6.6347

                    76                     77                     78
                     A                      A                      A
 Frequencies --  3060.4978              3063.5382              3074.3986
 Red. masses --     1.0815                 1.0797                 1.0981
 Frc consts  --     5.9685                 5.9705                 6.1154
 IR Inten    --    28.0943                20.3126                 3.5176

                    79                     80                     81
                     A                      A                      A
 Frequencies --  3079.6913              3082.4263              3096.2582
 Red. masses --     1.1013                 1.0977                 1.1019
 Frc consts  --     6.1541                 6.1450                 6.2238
 IR Inten    --    22.1341                90.6324                18.3545

                    82                     83                     84
                     A                      A                      A
 Frequencies --  3097.2492              3099.5302              3118.8363
 Red. masses --     1.1000                 1.1023                 1.0984
 Frc consts  --     6.2174                 6.2394                 6.2951
 IR Inten    --    35.6837                30.9646                17.9936

 - Thermochemistry -
 -------------------
 Temperature   298.150 Kelvin.  Pressure   1.00000 Atm.
 Atom     1 has atomic number  6 and mass  12.00000

 Molecular mass:   159.13850 amu.
 Principal axes and moments of inertia in atomic units:
                           1         2         3
     Eigenvalues --   894.556052999.600713325.92444
           X            1.00000  -0.00284   0.00007
           Y            0.00284   0.99961   0.02786
           Z           -0.00015  -0.02786   0.99961
 This molecule is an asymmetric top.
 Rotational symmetry number  1.
 Warning -- assumption of classical behavior for rotation
           may cause significant error
 Rotational temperatures (Kelvin)      0.09682     0.02888     0.02604
 Rotational constants (GHZ):           2.01747     0.60166     0.54263
    1 imaginary frequencies ignored.
 Zero-point vibrational energy     689277.6 (Joules/Mol)
                                  164.74130 (Kcal/Mol)
 Warning -- explicit consideration of  20 degrees of freedom as
           vibrations may cause significant error
 Vibrational temperatures:     76.51    88.44   136.91   236.15   251.05
          (Kelvin)            282.23   294.76   312.88   315.78   367.15
                              413.08   434.75   471.40   525.53   545.81
                              579.43   599.53   661.90   743.60   841.52
                              917.74  1094.54  1151.31  1245.91  1271.63
                             1340.66  1349.61  1353.20  1367.14  1386.23
                             1400.17  1413.40  1454.11  1464.51  1531.42
                             1584.00  1631.40  1650.00  1667.91  1714.50
                             1744.24  1786.09  1806.59  1839.45  1886.95
                             1925.62  1953.66  1968.21  1989.15  1998.08
                             2010.98  2016.28  2036.18  2046.61  2114.94
                             2128.81  2132.03  2138.61  2146.09  2148.50
                             2150.89  2156.84  2169.03  2179.63  2180.35
                             4284.99  4288.34  4298.18  4332.30  4339.11
                             4341.89  4361.72  4373.09  4402.41  4403.37
                             4407.74  4423.37  4430.98  4434.92  4454.82
                             4456.25  4459.53  4487.30

 Zero-point correction=                           0.262532 (Hartree/Particle)
 Thermal correction to Energy=                    0.275916
 Thermal correction to Enthalpy=                  0.276860
 Thermal correction to Gibbs Free Energy=         0.222968
 Sum of electronic and zero-point Energies=           -504.578571
 Sum of electronic and thermal Energies=              -504.565187
 Sum of electronic and thermal Enthalpies=            -504.564242
 Sum of electronic and thermal Free Energies=         -504.618135

                     E (Thermal)             CV                S
                      KCal/Mol        Cal/Mol-Kelvin    Cal/Mol-Kelvin
 Total                  173.140             50.596            113.426
 Electronic               0.000              0.000              1.377
 Translational            0.889              2.981             41.103
 Rotational               0.889              2.981             30.568
 Vibrational            171.363             44.634             40.377
 Vibration     1          0.596              1.976              4.696
 Vibration     2          0.597              1.973              4.409
 Vibration     3          0.603              1.953              3.551
 Vibration     4          0.623              1.886              2.502
 Vibration     5          0.627              1.874              2.387
 Vibration     6          0.636              1.845              2.169
 Vibration     7          0.640              1.833              2.089
 Vibration     8          0.646              1.814              1.980
 Vibration     9          0.647              1.811              1.963
 Vibration    10          0.666              1.754              1.695
 Vibration    11          0.684              1.698              1.491
 Vibration    12          0.694              1.670              1.405
 Vibration    13          0.711              1.620              1.272
 Vibration    14          0.738              1.544              1.100
 Vibration    15          0.749              1.514              1.042
 Vibration    16          0.768              1.464              0.953
 Vibration    17          0.780              1.434              0.903
 Vibration    18          0.818              1.339              0.766
 Vibration    19          0.872              1.213              0.617
 Vibration    20          0.942              1.064              0.476

 Optimization completed.
    -- Stationary point found.
 Normal termination of Gaussian 09 at Wed Feb 19 14:39:34 2014.

 -----------------------------------------------------------
 #P Geom=AllCheck Guess=TCheck SCRF=Check CCSD(T)/6-31+G(d')
 -----------------------------------------------------------

 Structure from the checkpoint file:  TS_3_3f.chk
 ------------------------------------
 TS_3_3f using cbs-qb3 to cal. energy
 ------------------------------------
 Charge =  0 Multiplicity = 2

 SCF Done:  E(UHF) =  -501.416536078     A.U. after   21 cycles
 E2 =    -0.1589845507D+01 EUMP2 =    -0.50300638158465D+03
 CCSD(T)
 CCSD(T)= -0.50318116225D+03
 956284\MP4SDQ=-503.1205127\CCSD=-503.123455\CCSD(T)=-503.1811622\S2=0.
 Normal termination of Gaussian 09 at Thu Feb 20 06:00:58 2014.

 -----------------------------------------------------
 #P Geom=AllCheck Guess=TCheck SCRF=Check MP4SDQ/CBSB4
 -----------------------------------------------------

 Structure from the checkpoint file:  TS_3_3f.chk
 ------------------------------------
 TS_3_3f using cbs-qb3 to cal. energy
 ------------------------------------
 Charge =  0 Multiplicity = 2

 SCF Done:  E(UHF) =  -501.445831573     A.U. after   18 cycles
 E2 =    -0.1716827674D+01 EUMP2 =    -0.50316265924675D+03
 Normal termination of Gaussian 09 at Thu Feb 20 06:34:59 2014.

 ----------------------------------------------------------------------
 #P Geom=AllCheck Guess=TCheck SCRF=Check MP2/CBSB3 CBSExtrap=(NMin=10,
 MinPop)
 ----------------------------------------------------------------------

 Structure from the checkpoint file:  TS_3_3f.chk
 ------------------------------------
 TS_3_3f using cbs-qb3 to cal. energy
 ------------------------------------
 Charge =  0 Multiplicity = 2

                         Standard orientation:
 ---------------------------------------------------------------------
 Center     Atomic      Atomic             Coordinates (Angstroms)
 Number     Number       Type             X           Y           Z
 ---------------------------------------------------------------------
      1          6           0       -3.190081   -1.134434    0.130017
      2          1           0       -2.647707   -2.070101    0.268765
      3          1           0       -3.611062   -1.133761   -0.881887
      4          1           0       -4.024819   -1.111795    0.836139
      5          6           0       -2.270734    0.075645    0.342016
      6          1           0       -1.898521    0.048956    1.372782
      7          6           0       -0.051111    1.173316   -0.415692
      8          1           0       -0.011980    1.485680    0.632036
      9          1           0       -0.457498    2.020479   -0.974024
     10          6           0        1.376120    0.870477   -0.921655
     11          1           0        1.883300    1.821123   -1.140937
     12          1           0        1.315029    0.327790   -1.869501
     13          6           0        2.243537    0.083379    0.061968
     14          1           0        1.322873   -0.737295    0.591889
     15          6           0        3.250354   -0.848666   -0.575250
     16          1           0        4.001768   -0.275553   -1.138803
     17          1           0        3.783331   -1.440029    0.173808
     18          1           0        2.766351   -1.533869   -1.275667
     19          6           0       -3.041267    1.387745    0.131287
     20          1           0       -3.373233    1.486603   -0.908550
     21          1           0       -3.934229    1.408612    0.761766
     22          1           0       -2.444747    2.268493    0.379353
     23          6           0        2.763633    0.875346    1.244282
     24          1           0        3.204033    0.221920    2.002018
     25          1           0        3.548390    1.573962    0.918434
     26          1           0        1.979402    1.466540    1.723313
     27          6           0       -1.030857   -0.007046   -0.565199
     28          1           0       -1.350819   -0.079259   -1.613008
     29          8           0       -0.348640   -1.273434   -0.403018
     30          8           0        0.305213   -1.301949    0.846946
 ---------------------------------------------------------------------

 SCF Done:  E(UHF) =  -501.582314135     A.U. after   18 cycles
 E2 =    -0.2020418545D+01 EUMP2 =    -0.50360273267978D+03
 E2(CBS)=      -2.218100 CBS-Int=       0.066055 OIii=      17.326596

 The electronic state is 2-A.
 Alpha  occ. eigenvalues --  -20.61817 -20.60259 -11.27868 -11.26077 -11.23136
 Alpha  occ. eigenvalues --  -11.22786 -11.22585 -11.22276 -11.22219 -11.21334
 Alpha  occ. eigenvalues --  -11.20135  -1.47243  -1.19992  -1.12094  -1.07131
 Alpha  occ. eigenvalues --   -1.01839  -0.94752  -0.92603  -0.91567  -0.83796
 Alpha  occ. eigenvalues --   -0.79528  -0.75946  -0.70462  -0.67419  -0.64026
 Alpha  occ. eigenvalues --   -0.62724  -0.61715  -0.60534  -0.60163  -0.57975
 Alpha  occ. eigenvalues --   -0.55992  -0.55225  -0.55094  -0.53678  -0.53107
 Alpha  occ. eigenvalues --   -0.52083  -0.50631  -0.50069  -0.48568  -0.47905
 Alpha  occ. eigenvalues --   -0.47243  -0.46433  -0.44326  -0.42087  -0.37252
 Alpha virt. eigenvalues --    0.03812   0.04656   0.04922   0.05347   0.06428
 Alpha virt. eigenvalues --    0.06556   0.06963   0.07396   0.07738   0.08673
 Alpha virt. eigenvalues --    0.09215   0.09414   0.09508   0.09788   0.11490

  Beta  occ. eigenvalues --  -20.60363 -20.59191 -11.27871 -11.24201 -11.23288
  Beta  occ. eigenvalues --  -11.22726 -11.22724 -11.22366 -11.22277 -11.21334
  Beta  occ. eigenvalues --  -11.20136  -1.44292  -1.15668  -1.09733  -1.06387
  Beta  occ. eigenvalues --   -1.01231  -0.94656  -0.92596  -0.91364  -0.83000
  Beta  occ. eigenvalues --   -0.77109  -0.73301  -0.67240  -0.65956  -0.63000
  Beta  occ. eigenvalues --   -0.62147  -0.60211  -0.59728  -0.57715  -0.56194
  Beta  occ. eigenvalues --   -0.55336  -0.54578  -0.54215  -0.53033  -0.52848
  Beta  occ. eigenvalues --   -0.51784  -0.50068  -0.47924  -0.47623  -0.47203
  Beta  occ. eigenvalues --   -0.46760  -0.45700  -0.43355  -0.39936
  Beta virt. eigenvalues --    0.03571   0.04625   0.04920   0.05331   0.06310
  Beta virt. eigenvalues --    0.06445   0.06968   0.07379   0.07679   0.08180
  Beta virt. eigenvalues --    0.08865   0.09252   0.09427   0.09763   0.09903

 Mulliken atomic charges:
              1
     1  C   -0.430532
     2  H    0.082832
     3  H    0.047926
     4  H    0.077307
     5  C    0.561869
     6  H    0.062475
     7  C   -0.278647
     8  H    0.096769
     9  H    0.079323
    10  C    0.181164
    11  H    0.085202
    12  H    0.099609
    13  C    0.017554
    14  H    0.529402
    15  C   -0.360645
    16  H    0.064854
    17  H    0.084906
    18  H    0.086374
    19  C   -0.521916
    20  H    0.066257
    21  H    0.095285
    22  H    0.066476
    23  C   -0.558467
    24  H    0.087738
    25  H    0.063251
    26  H    0.086149
    27  C   -0.093897
    28  H    0.100966
    29  O   -0.062175
    30  O   -0.417411
 Sum of Mulliken atomic charges =   0.00000

 Dipole moment (field-independent basis, Debye):
    X=              1.1494    Y=              2.7708    Z=             -0.6948  Tot=              3.0791
 Quadrupole moment (field-independent basis, Debye-Ang):
   XX=            -65.9272   YY=            -75.6954   ZZ=            -71.0782
   XY=             -0.2595   XZ=              0.4011   YZ=              0.5403

    1 imaginary frequencies ignored.
 Normal termination of Gaussian 09 at Thu Feb 20 08:13:44 2014.
