 Gaussian 09, Revision C.01,
 Gaussian 09:  EM64L-G09RevC.01 23-Sep-2011

 -------------------------------
 #p cbs-qb3 opt=(TS,calcfc) freq
 -------------------------------

 (Enter /usr/caen/gaussian-09revc/g09/l101.exe)
 -----------------------------------------------
 TS_3_3g using B3LYP/6-311++g(d,p) to calc. freq
 -----------------------------------------------
 Charge =  0 Multiplicity = 2

 SCF Done:  E(UB3LYP) =  -504.807287552     A.U. after   18 cycles
 SCF Done:  E(UB3LYP) =  -504.807302550     A.U. after   13 cycles
 SCF Done:  E(UB3LYP) =  -504.807302753     A.U. after   10 cycles
 SCF Done:  E(UB3LYP) =  -504.807302614     A.U. after    8 cycles
 Optimization completed.
    -- Stationary point found.
 Normal termination of Gaussian 09 at Wed Feb 19 11:39:13 2014.

 ---------------------------------------------------------
 #P Geom=AllCheck Guess=TCheck SCRF=Check B3LYP/CBSB7 Freq
 ---------------------------------------------------------

 Structure from the checkpoint file:  TS_3_3g.chk
 -----------------------------------------------
 TS_3_3g using B3LYP/6-311++g(d,p) to calc. freq
 -----------------------------------------------
 Charge =  0 Multiplicity = 2

 SCF Done:  E(UB3LYP) =  -504.807302614     A.U. after    1 cycles

  Exact polarizability: 134.967  -4.328 111.319   8.376  -2.164 109.661
 Approx polarizability: 182.887  -9.900 166.243  16.726  -6.784 160.565

 ******    1 imaginary frequencies (negative Signs) ******

                     1                      2                      3
                     A                      A                      A
 Frequencies -- -1580.5325                48.7926                71.4915
 Red. masses --     1.1421                 4.0405                 2.6093
 Frc consts  --     1.6810                 0.0057                 0.0079
 IR Inten    --   841.4296                 0.4715                 0.0741

                     4                      5                      6
                     A                      A                      A
 Frequencies --    98.4490               144.7306               172.9534
 Red. masses --     2.9029                 2.3666                 2.5159
 Frc consts  --     0.0166                 0.0292                 0.0443
 IR Inten    --     0.0277                 0.3437                 0.1689

                     7                      8                      9
                     A                      A                      A
 Frequencies --   210.1525               224.5699               234.1280
 Red. masses --     1.2306                 1.0914                 1.2215
 Frc consts  --     0.0320                 0.0324                 0.0395
 IR Inten    --     0.2138                 0.0774                 0.5465

                    10                     11                     12
                     A                      A                      A
 Frequencies --   263.5215               271.1116               289.1931
 Red. masses --     3.1364                 3.6347                 2.3520
 Frc consts  --     0.1283                 0.1574                 0.1159
 IR Inten    --     2.5008                 2.4233                 3.6440

                    13                     14                     15
                     A                      A                      A
 Frequencies --   337.1789               359.2195               368.9865
 Red. masses --     2.7612                 2.1194                 2.5180
 Frc consts  --     0.1850                 0.1611                 0.2020
 IR Inten    --     1.7156                 0.2279                 0.6678

                    16                     17                     18
                     A                      A                      A
 Frequencies --   387.6766               436.3733               449.5954
 Red. masses --     2.0556                 2.5671                 3.0604
 Frc consts  --     0.1820                 0.2880                 0.3645
 IR Inten    --     0.3093                 3.6180                 0.6343

                    19                     20                     21
                     A                      A                      A
 Frequencies --   473.7176               586.9611               609.5756
 Red. masses --     1.7931                 2.3865                 2.2861
 Frc consts  --     0.2371                 0.4844                 0.5005
 IR Inten    --     2.5992                 0.7130                 2.1029

                    22                     23                     24
                     A                      A                      A
 Frequencies --   673.4916               742.5959               783.2258
 Red. masses --     3.2730                 2.4555                 2.2813
 Frc consts  --     0.8747                 0.7978                 0.8245
 IR Inten    --     1.6991                 0.0550                 1.6193

                    25                     26                     27
                     A                      A                      A
 Frequencies --   807.5214               876.5495               893.8323
 Red. masses --     3.1346                 2.0658                 2.5596
 Frc consts  --     1.2043                 0.9352                 1.2049
 IR Inten    --     3.5464                 8.2982                 5.6561

                    28                     29                     30
                     A                      A                      A
 Frequencies --   917.9573               935.4945               937.6508
 Red. masses --     2.0533                 1.2151                 1.2823
 Frc consts  --     1.0194                 0.6265                 0.6643
 IR Inten    --    13.3126                 0.4949                 9.0526

                    31                     32                     33
                     A                      A                      A
 Frequencies --   954.0117               963.9743               975.2185
 Red. masses --     1.3600                 1.5137                 1.8443
 Frc consts  --     0.7293                 0.8288                 1.0334
 IR Inten    --     8.3536                 5.2254                 7.6775

                    34                     35                     36
                     A                      A                      A
 Frequencies --   993.0769              1032.2229              1060.5908
 Red. masses --     1.8947                 3.7250                 1.7825
 Frc consts  --     1.1009                 2.3384                 1.1813
 IR Inten    --     6.2010                23.2930                 1.7961

                    37                     38                     39
                     A                      A                      A
 Frequencies --  1101.1978              1127.7163              1141.3394
 Red. masses --     2.4490                 1.6122                 2.1430
 Frc consts  --     1.7497                 1.2080                 1.6448
 IR Inten    --     4.9055                 0.2170                 2.8150

                    40                     41                     42
                     A                      A                      A
 Frequencies --  1166.8371              1176.6598              1189.7607
 Red. masses --     2.2745                 2.3748                 1.9676
 Frc consts  --     1.8246                 1.9372                 1.6410
 IR Inten    --     3.2918                 6.4091                 2.4267

                    43                     44                     45
                     A                      A                      A
 Frequencies --  1221.1517              1272.6181              1293.9810
 Red. masses --     1.2178                 1.2432                 1.2073
 Frc consts  --     1.0699                 1.1863                 1.1910
 IR Inten    --    35.4699                 2.7994                 3.8725

                    46                     47                     48
                     A                      A                      A
 Frequencies --  1319.3808              1336.3530              1338.4569
 Red. masses --     1.3491                 1.2156                 1.1913
 Frc consts  --     1.3837                 1.2791                 1.2574
 IR Inten    --     2.7358                 1.4875                 2.1395

                    49                     50                     51
                     A                      A                      A
 Frequencies --  1352.3233              1374.0036              1391.9850
 Red. masses --     1.3556                 1.3306                 1.3078
 Frc consts  --     1.4606                 1.4800                 1.4930
 IR Inten    --     1.8405                 4.0474                 0.6151

                    52                     53                     54
                     A                      A                      A
 Frequencies --  1400.2049              1401.9838              1403.0294
 Red. masses --     1.2611                 1.2767                 1.2253
 Frc consts  --     1.4568                 1.4785                 1.4211
 IR Inten    --     3.3326                 4.3287                 3.2486

                    55                     56                     57
                     A                      A                      A
 Frequencies --  1416.6480              1423.7576              1462.7908
 Red. masses --     1.2745                 1.2226                 1.1448
 Frc consts  --     1.5070                 1.4602                 1.4433
 IR Inten    --     2.7818                12.5982                 6.7136

                    58                     59                     60
                     A                      A                      A
 Frequencies --  1475.9603              1482.3439              1489.9022
 Red. masses --     1.0675                 1.0659                 1.0500
 Frc consts  --     1.3701                 1.3799                 1.3733
 IR Inten    --    13.3135                 3.5386                 3.6800

                    61                     62                     63
                     A                      A                      A
 Frequencies --  1493.3967              1497.0226              1501.6774
 Red. masses --     1.0588                 1.0481                 1.0539
 Frc consts  --     1.3913                 1.3840                 1.4003
 IR Inten    --     5.2791                 4.0337                 1.8847

                    64                     65                     66
                     A                      A                      A
 Frequencies --  1506.6831              1512.7363              1520.7535
 Red. masses --     1.0598                 1.0553                 1.0511
 Frc consts  --     1.4175                 1.4229                 1.4322
 IR Inten    --     8.4861                 3.7844                10.6426

                    67                     68                     69
                     A                      A                      A
 Frequencies --  2984.7008              2997.8466              3016.3858
 Red. masses --     1.0830                 1.0814                 1.0714
 Frc consts  --     5.6845                 5.7262                 5.7435
 IR Inten    --    21.1297                10.4444                48.6960

                    70                     71                     72
                     A                      A                      A
 Frequencies --  3018.3486              3023.0060              3027.6780
 Red. masses --     1.0406                 1.0416                 1.0393
 Frc consts  --     5.5857                 5.6082                 5.6134
 IR Inten    --    13.2760                35.1026                36.2318

                    73                     74                     75
                     A                      A                      A
 Frequencies --  3043.0297              3055.2836              3067.5640
 Red. masses --     1.0675                 1.0822                 1.0944
 Frc consts  --     5.8240                 5.9520                 6.0673
 IR Inten    --    36.9466                19.3168                 9.9512

                    76                     77                     78
                     A                      A                      A
 Frequencies --  3075.9049              3082.6190              3085.1891
 Red. masses --     1.0992                 1.0921                 1.0724
 Frc consts  --     6.1273                 6.1144                 6.0142
 IR Inten    --     2.6054                13.1684                14.2368

                    79                     80                     81
                     A                      A                      A
 Frequencies --  3087.8766              3097.2509              3101.7026
 Red. masses --     1.0861                 1.0951                 1.0974
 Frc consts  --     6.1014                 6.1897                 6.2201
 IR Inten    --    77.3805                37.5407                34.9326

                    82                     83                     84
                     A                      A                      A
 Frequencies --  3112.3925              3124.5153              3167.8196
 Red. masses --     1.0976                 1.0979                 1.1123
 Frc consts  --     6.2642                 6.3150                 6.5767
 IR Inten    --    21.0120                15.3321                15.0672

 - Thermochemistry -
 -------------------
 Temperature   298.150 Kelvin.  Pressure   1.00000 Atm.
 Atom     1 has atomic number  6 and mass  12.00000

 Molecular mass:   159.13850 amu.
 Principal axes and moments of inertia in atomic units:
                           1         2         3
     Eigenvalues --  1425.049072078.540692551.54966
           X            0.99991   0.01329  -0.00225
           Y           -0.01327   0.99989   0.00672
           Z            0.00234  -0.00669   0.99997
 This molecule is an asymmetric top.
 Rotational symmetry number  1.
 Warning -- assumption of classical behavior for rotation
           may cause significant error
 Rotational temperatures (Kelvin)      0.06078     0.04167     0.03395
 Rotational constants (GHZ):           1.26644     0.86827     0.70731
    1 imaginary frequencies ignored.
 Zero-point vibrational energy     691127.9 (Joules/Mol)
                                  165.18353 (Kcal/Mol)
 Warning -- explicit consideration of  20 degrees of freedom as
           vibrations may cause significant error
 Vibrational temperatures:     70.20   102.86   141.65   208.23   248.84
          (Kelvin)            302.36   323.11   336.86   379.15   390.07
                              416.08   485.12   516.84   530.89   557.78
                              627.84   646.87   681.57   844.50   877.04
                              969.00  1068.43  1126.89  1161.84  1261.16
                             1286.02  1320.73  1345.97  1349.07  1372.61
                             1386.94  1403.12  1428.81  1485.14  1525.95
                             1584.38  1622.53  1642.13  1678.82  1692.95
                             1711.80  1756.96  1831.01  1861.75  1898.29
                             1922.71  1925.74  1945.69  1976.88  2002.75
                             2014.58  2017.14  2018.64  2038.24  2048.47
                             2104.63  2123.57  2132.76  2143.63  2148.66
                             2153.88  2160.58  2167.78  2176.49  2188.02
                             4294.31  4313.23  4339.90  4342.72  4349.43
                             4356.15  4378.24  4395.87  4413.53  4425.54
                             4435.20  4438.89  4442.76  4456.25  4462.65
                             4478.03  4495.47  4557.78

 Zero-point correction=                           0.263237 (Hartree/Particle)
 Thermal correction to Energy=                    0.276292
 Thermal correction to Enthalpy=                  0.277237
 Thermal correction to Gibbs Free Energy=         0.224151
 Sum of electronic and zero-point Energies=           -504.544066
 Sum of electronic and thermal Energies=              -504.531010
 Sum of electronic and thermal Enthalpies=            -504.530066
 Sum of electronic and thermal Free Energies=         -504.583151

                     E (Thermal)             CV                S
                      KCal/Mol        Cal/Mol-Kelvin    Cal/Mol-Kelvin
 Total                  173.376             50.185            111.727
 Electronic               0.000              0.000              1.377
 Translational            0.889              2.981             41.103
 Rotational               0.889              2.981             30.403
 Vibrational            171.599             44.224             38.843
 Vibration     1          0.595              1.978              4.866
 Vibration     2          0.598              1.968              4.112
 Vibration     3          0.604              1.950              3.485
 Vibration     4          0.616              1.908              2.740
 Vibration     5          0.626              1.876              2.403
 Vibration     6          0.642              1.825              2.042
 Vibration     7          0.649              1.804              1.922
 Vibration     8          0.654              1.789              1.847
 Vibration     9          0.670              1.740              1.638
 Vibration    10          0.675              1.726              1.589
 Vibration    11          0.686              1.694              1.479
 Vibration    12          0.718              1.601              1.225
 Vibration    13          0.734              1.556              1.125
 Vibration    14          0.741              1.536              1.084
 Vibration    15          0.756              1.497              1.009
 Vibration    16          0.797              1.391              0.838
 Vibration    17          0.808              1.362              0.797
 Vibration    18          0.831              1.308              0.727
 Vibration    19          0.944              1.060              0.473
 Vibration    20          0.969              1.012              0.433

 Optimization completed.
    -- Stationary point found.
 Normal termination of Gaussian 09 at Wed Feb 19 11:50:31 2014.

 -----------------------------------------------------------
 #P Geom=AllCheck Guess=TCheck SCRF=Check CCSD(T)/6-31+G(d')
 -----------------------------------------------------------

 Structure from the checkpoint file:  TS_3_3g.chk
 -----------------------------------------------
 TS_3_3g using B3LYP/6-311++g(d,p) to calc. freq
 -----------------------------------------------
 Charge =  0 Multiplicity = 2

 SCF Done:  E(UHF) =  -501.381469336     A.U. after   21 cycles
 E2 =    -0.1589742435D+01 EUMP2 =    -0.50297121177076D+03
 CCSD(T)
 CCSD(T)= -0.50314565822D+03
 MP3-0=-503.0603523\MP4SDQ=-503.0854786\CCSD=-503.0881947\CCSD(T)=-503.
 Normal termination of Gaussian 09 at Wed Feb 19 22:20:13 2014.

 -----------------------------------------------------
 #P Geom=AllCheck Guess=TCheck SCRF=Check MP4SDQ/CBSB4
 -----------------------------------------------------

 Structure from the checkpoint file:  TS_3_3g.chk
 -----------------------------------------------
 TS_3_3g using B3LYP/6-311++g(d,p) to calc. freq
 -----------------------------------------------
 Charge =  0 Multiplicity = 2

 SCF Done:  E(UHF) =  -501.412279207     A.U. after   17 cycles
 E2 =    -0.1716746630D+01 EUMP2 =    -0.50312902583696D+03
 Normal termination of Gaussian 09 at Wed Feb 19 22:45:13 2014.

 ----------------------------------------------------------------------
 #P Geom=AllCheck Guess=TCheck SCRF=Check MP2/CBSB3 CBSExtrap=(NMin=10,
 MinPop)
 ----------------------------------------------------------------------

 Structure from the checkpoint file:  TS_3_3g.chk
 -----------------------------------------------
 TS_3_3g using B3LYP/6-311++g(d,p) to calc. freq
 -----------------------------------------------
 Charge =  0 Multiplicity = 2

                         Standard orientation:
 ---------------------------------------------------------------------
 Center     Atomic      Atomic             Coordinates (Angstroms)
 Number     Number       Type             X           Y           Z
 ---------------------------------------------------------------------
      1          6           0        2.763573   -0.053199   -1.016804
      2          1           0        2.510004   -0.974204   -1.540956
      3          1           0        3.568646   -0.279657   -0.308733
      4          1           0        3.153665    0.664773   -1.743653
      5          6           0        1.544675    0.533894   -0.285768
      6          1           0        0.785815    0.764992   -1.037811
      7          6           0       -0.241634   -0.074737    1.577087
      8          1           0       -0.238319   -0.733510    2.450898
      9          1           0        0.029456    0.910249    1.966367
     10          6           0       -1.727883   -0.042311    1.115646
     11          1           0       -2.249452    0.593275    1.841478
     12          1           0       -2.132942   -1.045755    1.245150
     13          6           0       -2.172501    0.443135   -0.292956
     14          1           0       -3.265360    0.354334   -0.255170
     15          6           0       -1.865553    1.927812   -0.556465
     16          1           0       -0.794134    2.124328   -0.624438
     17          1           0       -2.321386    2.257872   -1.493945
     18          1           0       -2.269140    2.550968    0.247746
     19          6           0        1.944697    1.837350    0.422886
     20          1           0        2.635013    1.636678    1.249706
     21          1           0        2.457524    2.503609   -0.275874
     22          1           0        1.089875    2.383698    0.826413
     23          6           0       -1.707924   -0.459195   -1.427581
     24          1           0       -2.478581   -1.008563   -1.965462
     25          1           0       -0.920608   -0.085479   -2.080239
     26          1           0       -1.017703   -1.534316   -0.797477
     27          6           0        0.963673   -0.502856    0.710563
     28          1           0        1.771992   -0.707741    1.426525
     29          8           0        0.828328   -1.771276    0.006847
     30          8           0       -0.493466   -2.233087   -0.083118
 ---------------------------------------------------------------------

 SCF Done:  E(UHF) =  -501.549013376     A.U. after   18 cycles
 E2 =    -0.2021492645D+01 EUMP2 =    -0.50357050602067D+03
 E2(CBS)=      -2.218338 CBS-Int=       0.066014 OIii=      17.313388

 The electronic state is 2-A.
 Alpha  occ. eigenvalues --  -20.60836 -20.59567 -11.28128 -11.25850 -11.24504
 Alpha  occ. eigenvalues --  -11.22914 -11.22813 -11.22674 -11.22377 -11.21677
 Alpha  occ. eigenvalues --  -11.20514  -1.46544  -1.19738  -1.11054  -1.06992
 Alpha  occ. eigenvalues --   -1.01817  -0.95995  -0.92995  -0.92002  -0.84044
 Alpha  occ. eigenvalues --   -0.78711  -0.75935  -0.70240  -0.67150  -0.65107
 Alpha  occ. eigenvalues --   -0.62424  -0.61549  -0.60870  -0.60463  -0.58897
 Alpha  occ. eigenvalues --   -0.56234  -0.55596  -0.54933  -0.53709  -0.52850
 Alpha  occ. eigenvalues --   -0.51998  -0.50880  -0.48879  -0.48326  -0.46787
 Alpha  occ. eigenvalues --   -0.46325  -0.45281  -0.44125  -0.42643  -0.37890
 Alpha virt. eigenvalues --    0.03515   0.04533   0.04761   0.05391   0.06340
 Alpha virt. eigenvalues --    0.06538   0.06898   0.07165   0.07971   0.09200
 Alpha virt. eigenvalues --    0.09287   0.09354   0.10016   0.10209   0.11251

  Beta  occ. eigenvalues --  -20.59599 -20.58888 -11.28133 -11.24696 -11.23767
  Beta  occ. eigenvalues --  -11.22911 -11.22818 -11.22560 -11.22299 -11.21676
  Beta  occ. eigenvalues --  -11.20514  -1.44166  -1.16614  -1.09889  -1.06467
  Beta  occ. eigenvalues --   -1.01173  -0.93077  -0.91847  -0.91308  -0.83153
  Beta  occ. eigenvalues --   -0.78028  -0.74601  -0.67383  -0.65815  -0.64097
  Beta  occ. eigenvalues --   -0.61926  -0.61085  -0.60220  -0.58630  -0.57781
  Beta  occ. eigenvalues --   -0.55858  -0.54711  -0.54205  -0.53495  -0.52200
  Beta  occ. eigenvalues --   -0.51182  -0.49657  -0.48177  -0.47970  -0.46247
  Beta  occ. eigenvalues --   -0.45476  -0.44685  -0.42900  -0.40229
  Beta virt. eigenvalues --    0.03474   0.04505   0.04572   0.05322   0.06004
  Beta virt. eigenvalues --    0.06453   0.06804   0.06991   0.07451   0.08341
  Beta virt. eigenvalues --    0.09237   0.09323   0.09387   0.10032   0.10275

 Mulliken atomic charges:
              1
     1  C   -0.268820
     2  H    0.095825
     3  H    0.055556
     4  H    0.079758
     5  C    0.801610
     6  H   -0.023304
     7  C   -0.331821
     8  H    0.104831
     9  H    0.044057
    10  C   -0.513935
    11  H    0.083994
    12  H    0.119677
    13  C    0.975335
    14  H    0.104455
    15  C   -0.646081
    16  H    0.087122
    17  H    0.073378
    18  H    0.074739
    19  C   -0.681266
    20  H    0.078728
    21  H    0.082261
    22  H    0.063735
    23  C   -0.822392
    24  H    0.137758
    25  H    0.130367
    26  H    0.394675
    27  C    0.016626
    28  H    0.163451
    29  O   -0.233806
    30  O   -0.246513
 Sum of Mulliken atomic charges =   0.00000

 Dipole moment (field-independent basis, Debye):
    X=             -1.4021    Y=              3.2974    Z=             -0.2239  Tot=              3.5901
 Quadrupole moment (field-independent basis, Debye-Ang):
   XX=            -68.0797   YY=            -81.2498   ZZ=            -68.5548
   XY=              1.4109   XZ=              2.5888   YZ=              0.1185

    1 imaginary frequencies ignored.
 Normal termination of Gaussian 09 at Thu Feb 20 00:00:24 2014.
