 Gaussian 09, Revision C.01,
 Gaussian 09:  EM64L-G09RevC.01 23-Sep-2011

 -------------------------------
 #p cbs-qb3 opt=(ts,calcfc) freq
 -------------------------------

 (Enter /usr/caen/gaussian-09revc/g09/l101.exe)
 -----------------------------------------------------
 TS_3_C9H18O_3 using B3LYP/6-311++g(d,p) to calc. freq
 -----------------------------------------------------
 Charge =  0 Multiplicity = 2

 SCF Done:  E(UB3LYP) =  -504.803712707     A.U. after   19 cycles
 SCF Done:  E(UB3LYP) =  -504.803744966     A.U. after   15 cycles
 SCF Done:  E(UB3LYP) =  -504.803746339     A.U. after   13 cycles
 SCF Done:  E(UB3LYP) =  -504.803746230     A.U. after    8 cycles
 Optimization completed on the basis of negligible forces.
    -- Stationary point found.
 Normal termination of Gaussian 09 at Thu Feb 20 00:11:52 2014.

 ---------------------------------------------------------
 #P Geom=AllCheck Guess=TCheck SCRF=Check B3LYP/CBSB7 Freq
 ---------------------------------------------------------

 Structure from the checkpoint file:  TS_3_C9H18O_3.chk
 -----------------------------------------------------
 TS_3_C9H18O_3 using B3LYP/6-311++g(d,p) to calc. freq
 -----------------------------------------------------
 Charge =  0 Multiplicity = 2

 SCF Done:  E(UB3LYP) =  -504.803746230     A.U. after    1 cycles

  Exact polarizability: 131.209   1.142 116.168   0.391  -4.197  97.209
 Approx polarizability: 149.625  -1.139 171.571   1.064 -13.353 163.499

 ******    1 imaginary frequencies (negative Signs) ******

                     1                      2                      3
                     A                      A                      A
 Frequencies -- -1783.9111                18.9250                47.4754
 Red. masses --     1.0975                 2.5141                 3.1394
 Frc consts  --     2.0579                 0.0005                 0.0042
 IR Inten    --    51.8991                 0.2077                 0.3888

                     4                      5                      6
                     A                      A                      A
 Frequencies --    59.4607                88.6565               118.7074
 Red. masses --     3.0400                 3.4459                 2.2633
 Frc consts  --     0.0063                 0.0160                 0.0188
 IR Inten    --     1.2122                 0.8247                 0.9733

                     7                      8                      9
                     A                      A                      A
 Frequencies --   146.9020               206.0950               216.1741
 Red. masses --     4.7393                 1.5775                 1.3295
 Frc consts  --     0.0603                 0.0395                 0.0366
 IR Inten    --     1.8703                 0.4108                 0.0290

                    10                     11                     12
                     A                      A                      A
 Frequencies --   223.2630               232.8432               242.5285
 Red. masses --     1.2083                 1.5336                 1.4057
 Frc consts  --     0.0355                 0.0490                 0.0487
 IR Inten    --     0.0458                 0.2436                 0.0072

                    13                     14                     15
                     A                      A                      A
 Frequencies --   257.3778               302.3217               334.8351
 Red. masses --     1.3867                 2.3951                 3.3286
 Frc consts  --     0.0541                 0.1290                 0.2199
 IR Inten    --     0.0895                 0.6585                 3.4474

                    16                     17                     18
                     A                      A                      A
 Frequencies --   378.5595               408.1626               419.8941
 Red. masses --     2.2757                 2.4401                 2.2877
 Frc consts  --     0.1921                 0.2395                 0.2376
 IR Inten    --     0.5660                 0.7087                 0.6549

                    19                     20                     21
                     A                      A                      A
 Frequencies --   465.4640               492.1526               520.7207
 Red. masses --     2.6632                 3.3458                 2.4964
 Frc consts  --     0.3400                 0.4775                 0.3988
 IR Inten    --     1.6144                 4.7248                 2.9947

                    22                     23                     24
                     A                      A                      A
 Frequencies --   644.9820               765.4414               806.4158
 Red. masses --     4.3621                 1.3891                 8.3966
 Frc consts  --     1.0692                 0.4795                 3.2172
 IR Inten    --     6.0123                 0.6280                 1.1771

                    25                     26                     27
                     A                      A                      A
 Frequencies --   826.1750               862.7596               903.9766
 Red. masses --     2.4982                 2.7141                 2.7399
 Frc consts  --     1.0047                 1.1903                 1.3192
 IR Inten    --     0.9455                 6.1856                 3.3923

                    28                     29                     30
                     A                      A                      A
 Frequencies --   928.2013               932.4598               937.5306
 Red. masses --     1.2095                 1.3843                 1.2219
 Frc consts  --     0.6140                 0.7092                 0.6328
 IR Inten    --     3.4402                 8.9699                 1.2330

                    31                     32                     33
                     A                      A                      A
 Frequencies --   952.0956               964.5408               971.0231
 Red. masses --     1.7649                 1.4966                 1.4316
 Frc consts  --     0.9426                 0.8204                 0.7953
 IR Inten    --    11.8662                 2.1135                 1.1842

                    34                     35                     36
                     A                      A                      A
 Frequencies --   992.0207              1030.4356              1068.5902
 Red. masses --     1.3041                 3.0650                 1.8945
 Frc consts  --     0.7561                 1.9174                 1.2746
 IR Inten    --    18.4113                 0.3934                13.4490

                    37                     38                     39
                     A                      A                      A
 Frequencies --  1101.8618              1120.1499              1142.7388
 Red. masses --     2.3574                 1.8323                 2.0968
 Frc consts  --     1.6863                 1.3546                 1.6132
 IR Inten    --     8.9600                11.6712                10.1312

                    40                     41                     42
                     A                      A                      A
 Frequencies --  1161.8183              1189.8697              1201.2176
 Red. masses --     1.9987                 1.8214                 3.1251
 Frc consts  --     1.5895                 1.5193                 2.6568
 IR Inten    --     3.4281                11.6055                20.6786

                    43                     44                     45
                     A                      A                      A
 Frequencies --  1207.3118              1236.4119              1296.5109
 Red. masses --     1.8450                 1.5198                 1.2976
 Frc consts  --     1.5845                 1.3689                 1.2851
 IR Inten    --     0.0747                 6.7126                 9.1323

                    46                     47                     48
                     A                      A                      A
 Frequencies --  1316.1437              1328.8569              1340.1572
 Red. masses --     1.2808                 1.4611                 1.3942
 Frc consts  --     1.3072                 1.5201                 1.4753
 IR Inten    --     1.9295                 1.3765                 5.7460

                    49                     50                     51
                     A                      A                      A
 Frequencies --  1355.9000              1372.7251              1396.1373
 Red. masses --     1.4149                 1.3115                 1.4466
 Frc consts  --     1.5326                 1.4561                 1.6614
 IR Inten    --     7.9415                 2.9945                 1.8093

                    52                     53                     54
                     A                      A                      A
 Frequencies --  1403.4411              1407.9495              1423.9524
 Red. masses --     1.2604                 1.2585                 1.2428
 Frc consts  --     1.4626                 1.4698                 1.4847
 IR Inten    --    10.1395                 4.0411                 6.9173

                    55                     56                     57
                     A                      A                      A
 Frequencies --  1426.4719              1469.1951              1487.6331
 Red. masses --     1.2225                 1.0782                 1.0591
 Frc consts  --     1.4656                 1.3713                 1.3809
 IR Inten    --     8.1384                 0.4812                 1.3588

                    58                     59                     60
                     A                      A                      A
 Frequencies --  1490.2502              1491.8992              1495.2101
 Red. masses --     1.0488                 1.0501                 1.0429
 Frc consts  --     1.3724                 1.3771                 1.3737
 IR Inten    --     2.3174                 2.9131                 2.4179

                    61                     62                     63
                     A                      A                      A
 Frequencies --  1500.2696              1505.9240              1506.9212
 Red. masses --     1.0754                 1.0487                 1.0538
 Frc consts  --     1.4262                 1.4012                 1.4099
 IR Inten    --     2.3906                 4.5165                 6.4504

                    64                     65                     66
                     A                      A                      A
 Frequencies --  1513.3081              1515.5943              1925.2040
 Red. masses --     1.0489                 1.0497                 1.0467
 Frc consts  --     1.4152                 1.4206                 2.2857
 IR Inten    --    12.9653                19.7947                 5.3577

                    67                     68                     69
                     A                      A                      A
 Frequencies --  2955.9771              2968.1085              2985.3047
 Red. masses --     1.0803                 1.0723                 1.0819
 Frc consts  --     5.5614                 5.5659                 5.6807
 IR Inten    --    11.1731                15.9814                14.2629

                    70                     71                     72
                     A                      A                      A
 Frequencies --  3014.6173              3015.5649              3022.1046
 Red. masses --     1.0368                 1.0546                 1.0498
 Frc consts  --     5.5513                 5.6505                 5.6491
 IR Inten    --    26.6102                12.3696                44.8501

                    73                     74                     75
                     A                      A                      A
 Frequencies --  3026.7953              3035.4046              3073.4250
 Red. masses --     1.0378                 1.0379                 1.0934
 Frc consts  --     5.6017                 5.6345                 6.0852
 IR Inten    --    17.6321                27.4882                 7.0122

                    76                     77                     78
                     A                      A                      A
 Frequencies --  3074.1102              3081.6538              3084.7707
 Red. masses --     1.0989                 1.0983                 1.1010
 Frc consts  --     6.1184                 6.1453                 6.1728
 IR Inten    --     4.0139                60.9995                18.5478

                    79                     80                     81
                     A                      A                      A
 Frequencies --  3088.1624              3088.7237              3094.4090
 Red. masses --     1.1004                 1.1005                 1.0983
 Frc consts  --     6.1829                 6.1856                 6.1963
 IR Inten    --     5.3463                57.8482                38.2344

                    82                     83                     84
                     A                      A                      A
 Frequencies --  3095.4676              3106.5309              3131.8968
 Red. masses --     1.0984                 1.0969                 1.0991
 Frc consts  --     6.2009                 6.2371                 6.3522
 IR Inten    --    64.6394                28.5063                11.3128

 - Thermochemistry -
 -------------------
 Temperature   298.150 Kelvin.  Pressure   1.00000 Atm.
 Atom     1 has atomic number  6 and mass  12.00000

 Molecular mass:   159.13850 amu.
 Principal axes and moments of inertia in atomic units:
                           1         2         3
     Eigenvalues --   973.391053538.992174230.06569
           X            0.99990   0.01380  -0.00009
           Y           -0.01380   0.99986   0.00964
           Z            0.00022  -0.00964   0.99995
 This molecule is an asymmetric top.
 Rotational symmetry number  1.
 Warning -- assumption of classical behavior for rotation
           may cause significant error
 Rotational temperatures (Kelvin)      0.08898     0.02447     0.02048
 Rotational constants (GHZ):           1.85408     0.50996     0.42665
    1 imaginary frequencies ignored.
 Zero-point vibrational energy     688099.3 (Joules/Mol)
                                  164.45969 (Kcal/Mol)
 Warning -- explicit consideration of  20 degrees of freedom as
           vibrations may cause significant error
 Vibrational temperatures:     27.23    68.31    85.55   127.56   170.79
          (Kelvin)            211.36   296.52   311.03   321.23   335.01
                              348.94   370.31   434.97   481.75   544.66
                              587.25   604.13   669.70   708.10   749.20
                              927.98  1101.30  1160.25  1188.68  1241.32
                             1300.62  1335.47  1341.60  1348.90  1369.85
                             1387.76  1397.08  1427.29  1482.57  1537.46
                             1585.33  1611.64  1644.14  1671.60  1711.95
                             1728.28  1737.05  1778.92  1865.39  1893.63
                             1911.93  1928.18  1950.84  1975.04  2008.73
                             2019.24  2025.72  2048.75  2052.37  2113.84
                             2140.37  2144.13  2146.51  2151.27  2158.55
                             2166.69  2168.12  2177.31  2180.60  2769.94
                             4252.99  4270.44  4295.18  4337.36  4338.72
                             4348.13  4354.88  4367.26  4421.97  4422.95
                             4433.81  4438.29  4443.17  4443.98  4452.16
                             4453.68  4469.60  4506.10

 Zero-point correction=                           0.262083 (Hartree/Particle)
 Thermal correction to Energy=                    0.276239
 Thermal correction to Enthalpy=                  0.277183
 Thermal correction to Gibbs Free Energy=         0.219671
 Sum of electronic and zero-point Energies=           -504.541663
 Sum of electronic and thermal Energies=              -504.527507
 Sum of electronic and thermal Enthalpies=            -504.526563
 Sum of electronic and thermal Free Energies=         -504.584075

                     E (Thermal)             CV                S
                      KCal/Mol        Cal/Mol-Kelvin    Cal/Mol-Kelvin
 Total                  173.343             51.442            121.045
 Electronic               0.000              0.000              1.377
 Translational            0.889              2.981             41.103
 Rotational               0.889              2.981             31.056
 Vibrational            171.565             45.480             47.509
 Vibration     1          0.593              1.986              6.744
 Vibration     2          0.595              1.979              4.920
 Vibration     3          0.597              1.974              4.475
 Vibration     4          0.601              1.957              3.690
 Vibration     5          0.609              1.934              3.121
 Vibration     6          0.617              1.906              2.712
 Vibration     7          0.641              1.831              2.078
 Vibration     8          0.645              1.816              1.991
 Vibration     9          0.649              1.806              1.932
 Vibration    10          0.654              1.791              1.857
 Vibration    11          0.659              1.775              1.784
 Vibration    12          0.667              1.750              1.679
 Vibration    13          0.694              1.669              1.404
 Vibration    14          0.716              1.606              1.237
 Vibration    15          0.749              1.516              1.045
 Vibration    16          0.773              1.452              0.933
 Vibration    17          0.783              1.427              0.892
 Vibration    18          0.823              1.327              0.750
 Vibration    19          0.848              1.267              0.678
 Vibration    20          0.876              1.204              0.608

 Optimization completed on the basis of negligible forces.
    -- Stationary point found.
 Normal termination of Gaussian 09 at Thu Feb 20 00:26:10 2014.

 -----------------------------------------------------------
 #P Geom=AllCheck Guess=TCheck SCRF=Check CCSD(T)/6-31+G(d')
 -----------------------------------------------------------

 Structure from the checkpoint file:  TS_3_C9H18O_3.chk
 -----------------------------------------------------
 TS_3_C9H18O_3 using B3LYP/6-311++g(d,p) to calc. freq
 -----------------------------------------------------
 Charge =  0 Multiplicity = 2

 SCF Done:  E(UHF) =  -501.385816994     A.U. after   26 cycles
 E2 =    -0.1571366474D+01 EUMP2 =    -0.50295718346877D+03
 CCSD(T)
 CCSD(T)= -0.50314740972D+03
 P3-0=-503.0607578\MP4SDQ=-503.0789846\CCSD=-503.0892715\CCSD(T)=-503.1
 Normal termination of Gaussian 09 at Thu Feb 20 15:00:18 2014.

 -----------------------------------------------------
 #P Geom=AllCheck Guess=TCheck SCRF=Check MP4SDQ/CBSB4
 -----------------------------------------------------

 Structure from the checkpoint file:  TS_3_C9H18O_3.chk
 -----------------------------------------------------
 TS_3_C9H18O_3 using B3LYP/6-311++g(d,p) to calc. freq
 -----------------------------------------------------
 Charge =  0 Multiplicity = 2

 SCF Done:  E(UHF) =  -501.414421866     A.U. after   18 cycles
 E2 =    -0.1698378050D+01 EUMP2 =    -0.50311279991590D+03
 Normal termination of Gaussian 09 at Thu Feb 20 15:34:17 2014.

 ----------------------------------------------------------------------
 #P Geom=AllCheck Guess=TCheck SCRF=Check MP2/CBSB3 CBSExtrap=(NMin=10,
 MinPop)
 ----------------------------------------------------------------------

 Structure from the checkpoint file:  TS_3_C9H18O_3.chk
 -----------------------------------------------------
 TS_3_C9H18O_3 using B3LYP/6-311++g(d,p) to calc. freq
 -----------------------------------------------------
 Charge =  0 Multiplicity = 2

                         Standard orientation:
 ---------------------------------------------------------------------
 Center     Atomic      Atomic             Coordinates (Angstroms)
 Number     Number       Type             X           Y           Z
 ---------------------------------------------------------------------
      1          6           0        3.633696   -0.178085   -0.016052
      2          1           0        3.628635   -1.156791   -0.494587
      3          1           0        3.703493   -0.331343    1.064510
      4          1           0        4.524648    0.365848   -0.339838
      5          6           0        2.372631    0.619618   -0.376570
      6          1           0        2.388983    0.791749   -1.465222
      7          6           0       -0.262204    0.467808   -0.347231
      8          1           0       -0.341118    0.679274   -1.425665
      9          1           0       -0.277455    1.434490    0.159038
     10          6           0       -1.457752   -0.391358    0.085925
     11          1           0       -1.438558   -0.518322    1.175439
     12          1           0       -1.334855   -1.389886   -0.340311
     13          6           0       -2.828692    0.171591   -0.332249
     14          1           0       -2.811362    0.313301   -1.421948
     15          6           0       -3.936085   -0.841868   -0.011692
     16          1           0       -3.998803   -1.023110    1.066778
     17          1           0       -4.913121   -0.480095   -0.344715
     18          1           0       -3.748491   -1.802619   -0.499220
     19          6           0        2.364162    1.987825    0.321362
     20          1           0        2.261049    1.872696    1.405183
     21          1           0        3.306951    2.507311    0.133456
     22          1           0        1.558379    2.635050   -0.030061
     23          6           0       -3.136239    1.529719    0.315120
     24          1           0       -3.130817    1.448705    1.407919
     25          1           0       -4.124445    1.890327    0.015538
     26          1           0       -2.410991    2.297487    0.033378
     27          6           0        1.093208   -0.177637   -0.128150
     28          1           0        1.141795   -0.736646    1.082539
     29          8           0        1.161469   -1.499467   -0.597077
     30          8           0        1.208499   -1.990922    0.816453
 ---------------------------------------------------------------------

 SCF Done:  E(UHF) =  -501.552257632     A.U. after   19 cycles
 E2 =    -0.2000950022D+01 EUMP2 =    -0.50355320765362D+03
 E2(CBS)=      -2.196689 CBS-Int=       0.065672 OIii=      17.256258

 The electronic state is 2-A.
 Alpha  occ. eigenvalues --  -20.66030 -20.61745 -11.31691 -11.24511 -11.23426
 Alpha  occ. eigenvalues --  -11.22719 -11.22507 -11.21754 -11.21296 -11.21241
 Alpha  occ. eigenvalues --  -11.20923  -1.49152  -1.23114  -1.10177  -1.08514
 Alpha  occ. eigenvalues --   -1.02190  -0.93787  -0.92972  -0.92198  -0.84431
 Alpha  occ. eigenvalues --   -0.80809  -0.76660  -0.68909  -0.68246  -0.65562
 Alpha  occ. eigenvalues --   -0.63532  -0.61233  -0.60059  -0.59528  -0.58292
 Alpha  occ. eigenvalues --   -0.57556  -0.55575  -0.54482  -0.53996  -0.53572
 Alpha  occ. eigenvalues --   -0.52359  -0.51559  -0.50260  -0.48872  -0.48404
 Alpha  occ. eigenvalues --   -0.46488  -0.46066  -0.45856  -0.43272  -0.39982
 Alpha virt. eigenvalues --    0.03654   0.04538   0.04938   0.05353   0.06349
 Alpha virt. eigenvalues --    0.06431   0.06721   0.07563   0.08125   0.08468
 Alpha virt. eigenvalues --    0.08944   0.09393   0.09499   0.10082   0.11564

  Beta  occ. eigenvalues --  -20.63244 -20.61384 -11.30079 -11.24588 -11.23507
  Beta  occ. eigenvalues --  -11.22724 -11.22499 -11.21729 -11.21273 -11.21241
  Beta  occ. eigenvalues --  -11.20923  -1.45885  -1.14271  -1.09832  -1.08254
  Beta  occ. eigenvalues --   -1.01854  -0.93761  -0.92959  -0.90838  -0.83765
  Beta  occ. eigenvalues --   -0.76838  -0.76413  -0.67995  -0.64468  -0.63299
  Beta  occ. eigenvalues --   -0.62890  -0.60562  -0.59576  -0.58596  -0.56867
  Beta  occ. eigenvalues --   -0.55404  -0.54558  -0.53967  -0.53507  -0.51982
  Beta  occ. eigenvalues --   -0.50838  -0.49772  -0.48816  -0.48393  -0.46853
  Beta  occ. eigenvalues --   -0.46093  -0.45988  -0.45729  -0.42856
  Beta virt. eigenvalues --    0.03519   0.04525   0.04942   0.05307   0.06180
  Beta virt. eigenvalues --    0.06374   0.06727   0.07565   0.08055   0.08408
  Beta virt. eigenvalues --    0.08563   0.09363   0.09489   0.09851   0.10124

 Mulliken atomic charges:
              1
     1  C   -0.322876
     2  H    0.097590
     3  H    0.061818
     4  H    0.095937
     5  C    0.893765
     6  H    0.051317
     7  C   -0.147864
     8  H    0.114345
     9  H    0.014733
    10  C   -0.647429
    11  H    0.106662
    12  H    0.074789
    13  C    0.908831
    14  H    0.035460
    15  C   -0.408107
    16  H    0.055867
    17  H    0.098893
    18  H    0.060879
    19  C   -0.598195
    20  H    0.087327
    21  H    0.097583
    22  H    0.069018
    23  C   -0.598534
    24  H    0.068724
    25  H    0.089888
    26  H    0.064076
    27  C   -0.230777
    28  H    0.054791
    29  O   -0.100082
    30  O   -0.148430
 Sum of Mulliken atomic charges =   0.00000

 Dipole moment (field-independent basis, Debye):
    X=             -0.1972    Y=              2.7463    Z=             -0.1853  Tot=              2.7596
 Quadrupole moment (field-independent basis, Debye-Ang):
   XX=            -70.7534   YY=            -76.9772   ZZ=            -71.3924
   XY=              3.7725   XZ=              0.0908   YZ=             -0.2091

    1 imaginary frequencies ignored.
 Normal termination of Gaussian 09 at Thu Feb 20 17:12:26 2014.
