 Gaussian 09, Revision C.01,
 Gaussian 09:  EM64L-G09RevC.01 23-Sep-2011

 -------------------------------
 #p cbs-qb3 opt=(TS,calcfc) freq
 -------------------------------

 (Enter /usr/caen/gaussian-09revc/g09/l101.exe)
 ------------------------------------
 TS_3_3a using cbs-qb3 to cal. energy
 ------------------------------------
 Charge =  0 Multiplicity = 2

 SCF Done:  E(UB3LYP) =  -504.829412052     A.U. after   18 cycles
 SCF Done:  E(UB3LYP) =  -504.829444016     A.U. after   12 cycles
 SCF Done:  E(UB3LYP) =  -504.829444526     A.U. after   10 cycles
 SCF Done:  E(UB3LYP) =  -504.829444733     A.U. after    8 cycles
 Optimization completed.
    -- Stationary point found.
 Normal termination of Gaussian 09 at Mon Feb 17 03:38:58 2014.

 ---------------------------------------------------------
 #P Geom=AllCheck Guess=TCheck SCRF=Check B3LYP/CBSB7 Freq
 ---------------------------------------------------------

 Structure from the checkpoint file:  TS_3_3a.chk
 ------------------------------------
 TS_3_3a using cbs-qb3 to cal. energy
 ------------------------------------
 Charge =  0 Multiplicity = 2

 SCF Done:  E(UB3LYP) =  -504.829444733     A.U. after    1 cycles

  Exact polarizability: 135.371  -8.265 112.959  -7.302  -0.312 102.479
 Approx polarizability: 161.969 -12.162 167.950 -11.843  -0.587 166.224

 ******    1 imaginary frequencies (negative Signs) ******

                     1                      2                      3
                     A                      A                      A
 Frequencies -- -1627.1996                31.7306                56.8798
 Red. masses --     1.1176                 2.6708                 3.3525
 Frc consts  --     1.7435                 0.0016                 0.0064
 IR Inten    --   370.5201                 0.3554                 0.9111

                     4                      5                      6
                     A                      A                      A
 Frequencies --    91.4746               112.7521               123.9029
 Red. masses --     3.0800                 2.7089                 2.4183
 Frc consts  --     0.0152                 0.0203                 0.0219
 IR Inten    --     0.7590                 1.4505                 0.2046

                     7                      8                      9
                     A                      A                      A
 Frequencies --   202.9845               222.6803               236.2951
 Red. masses --     2.6103                 1.0889                 2.3556
 Frc consts  --     0.0634                 0.0318                 0.0775
 IR Inten    --     0.0809                 0.0483                 0.9128

                    10                     11                     12
                     A                      A                      A
 Frequencies --   249.9227               253.9234               275.8858
 Red. masses --     1.1149                 1.1302                 3.6166
 Frc consts  --     0.0410                 0.0429                 0.1622
 IR Inten    --     0.0174                 0.0313                 1.3097

                    13                     14                     15
                     A                      A                      A
 Frequencies --   320.1695               377.5834               397.5427
 Red. masses --     2.4104                 2.1517                 2.8746
 Frc consts  --     0.1456                 0.1807                 0.2677
 IR Inten    --     0.6908                 2.7848                 1.9108

                    16                     17                     18
                     A                      A                      A
 Frequencies --   420.8350               446.0603               463.9541
 Red. masses --     2.4205                 2.2707                 1.6447
 Frc consts  --     0.2526                 0.2662                 0.2086
 IR Inten    --     0.5921                 0.3356                 1.0576

                    19                     20                     21
                     A                      A                      A
 Frequencies --   478.7415               553.2392               579.8843
 Red. masses --     3.9089                 2.8293                 2.6698
 Frc consts  --     0.5278                 0.5102                 0.5289
 IR Inten    --     6.6014                 0.9730                 8.2099

                    22                     23                     24
                     A                      A                      A
 Frequencies --   674.3093               758.4813               826.9382
 Red. masses --     2.1715                 1.9664                 1.9512
 Frc consts  --     0.5817                 0.6665                 0.7861
 IR Inten    --     1.2290                 1.0074                 3.9226

                    25                     26                     27
                     A                      A                      A
 Frequencies --   840.8416               879.6151               925.3246
 Red. masses --     2.9367                 3.2536                 1.9565
 Frc consts  --     1.2233                 1.4832                 0.9870
 IR Inten    --     6.5419                24.7891                 7.8401

                    28                     29                     30
                     A                      A                      A
 Frequencies --   930.7581               944.4152               955.4786
 Red. masses --     1.2266                 1.8954                 1.8359
 Frc consts  --     0.6261                 0.9960                 0.9875
 IR Inten    --     0.2329                 4.9481                 2.8545

                    31                     32                     33
                     A                      A                      A
 Frequencies --   960.4576               964.8349               988.6933
 Red. masses --     1.4298                 1.5181                 1.8933
 Frc consts  --     0.7771                 0.8326                 1.0904
 IR Inten    --     0.6772                 0.4034                 1.0256

                    34                     35                     36
                     A                      A                      A
 Frequencies --  1010.8685              1016.8621              1051.8777
 Red. masses --     1.8022                 2.8034                 2.4265
 Frc consts  --     1.0850                 1.7079                 1.5819
 IR Inten    --     2.8648                10.1227                 3.7321

                    37                     38                     39
                     A                      A                      A
 Frequencies --  1076.3278              1106.8079              1131.0269
 Red. masses --     1.6869                 1.2375                 1.9499
 Frc consts  --     1.1514                 0.8932                 1.4696
 IR Inten    --     5.9107                18.8532                 0.4964

                    40                     41                     42
                     A                      A                      A
 Frequencies --  1145.2485              1160.9069              1187.3931
 Red. masses --     2.0887                 2.0178                 2.1769
 Frc consts  --     1.6141                 1.6022                 1.8083
 IR Inten    --     1.0779                11.8773                 2.3027

                    43                     44                     45
                     A                      A                      A
 Frequencies --  1191.4893              1244.3697              1273.2286
 Red. masses --     1.8067                 1.4892                 1.2162
 Frc consts  --     1.5111                 1.3586                 1.1617
 IR Inten    --     7.1702                 8.1195                 3.4339

                    46                     47                     48
                     A                      A                      A
 Frequencies --  1314.8343              1321.1003              1339.1305
 Red. masses --     1.3124                 1.1952                 1.1838
 Frc consts  --     1.3368                 1.2290                 1.2508
 IR Inten    --     0.4527                 1.6295                 0.9651

                    49                     50                     51
                     A                      A                      A
 Frequencies --  1354.6136              1370.4934              1373.3120
 Red. masses --     1.3720                 1.2801                 1.2973
 Frc consts  --     1.4833                 1.4166                 1.4415
 IR Inten    --     2.3770                 2.3236                 1.3509

                    52                     53                     54
                     A                      A                      A
 Frequencies --  1391.9032              1401.8169              1404.2668
 Red. masses --     1.3685                 1.3472                 1.3438
 Frc consts  --     1.5621                 1.5598                 1.5613
 IR Inten    --     7.4334                 8.6877                 2.4741

                    55                     56                     57
                     A                      A                      A
 Frequencies --  1405.0796              1422.9706              1463.5153
 Red. masses --     1.2339                 1.2491                 1.1512
 Frc consts  --     1.4353                 1.4901                 1.4528
 IR Inten    --     3.9180                 6.7973                 4.7500

                    58                     59                     60
                     A                      A                      A
 Frequencies --  1476.6998              1489.0560              1492.8307
 Red. masses --     1.0791                 1.0592                 1.0492
 Frc consts  --     1.3865                 1.3838                 1.3777
 IR Inten    --     1.8619                 1.8386                 2.4905

                    61                     62                     63
                     A                      A                      A
 Frequencies --  1496.3940              1501.2687              1503.9471
 Red. masses --     1.0462                 1.0766                 1.0524
 Frc consts  --     1.3802                 1.4296                 1.4024
 IR Inten    --     6.6050                 3.8556                 5.6281

                    64                     65                     66
                     A                      A                      A
 Frequencies --  1506.8716              1512.7669              1568.4810
 Red. masses --     1.0545                 1.0495                 1.0560
 Frc consts  --     1.4108                 1.4151                 1.5306
 IR Inten    --     4.8334                14.8088                28.8904

                    67                     68                     69
                     A                      A                      A
 Frequencies --  2985.8923              2999.6437              3012.8455
 Red. masses --     1.0776                 1.0728                 1.0366
 Frc consts  --     5.6607                 5.6871                 5.5441
 IR Inten    --     1.2546                30.6140                28.4025

                    70                     71                     72
                     A                      A                      A
 Frequencies --  3018.4811              3025.9733              3035.0571
 Red. masses --     1.0385                 1.0362                 1.0838
 Frc consts  --     5.5748                 5.5903                 5.8819
 IR Inten    --    39.1328                21.6082                 8.1813

                    73                     74                     75
                     A                      A                      A
 Frequencies --  3044.3842              3046.5973              3065.5632
 Red. masses --     1.0624                 1.0839                 1.0903
 Frc consts  --     5.8015                 5.9273                 6.0370
 IR Inten    --     8.7785                21.8846                 8.8619

                    76                     77                     78
                     A                      A                      A
 Frequencies --  3071.7358              3078.9451              3084.3298
 Red. masses --     1.0999                 1.0993                 1.0878
 Frc consts  --     6.1148                 6.1402                 6.0968
 IR Inten    --     4.6029                65.6728                10.0097

                    79                     80                     81
                     A                      A                      A
 Frequencies --  3085.8072              3087.8906              3091.1547
 Red. masses --     1.0706                 1.0992                 1.0987
 Frc consts  --     6.0067                 6.1751                 6.1855
 IR Inten    --    19.6620                62.9077                30.0291

                    82                     83                     84
                     A                      A                      A
 Frequencies --  3092.0387              3103.9469              3173.2270
 Red. masses --     1.1001                 1.1019                 1.1130
 Frc consts  --     6.1967                 6.2547                 6.6029
 IR Inten    --    51.7561                28.5472                15.2586

 - Thermochemistry -
 -------------------
 Temperature   298.150 Kelvin.  Pressure   1.00000 Atm.
 Atom     1 has atomic number  6 and mass  12.00000

 Molecular mass:   159.13850 amu.
 Principal axes and moments of inertia in atomic units:
                           1         2         3
     Eigenvalues --  1050.473503346.177823940.07203
           X            0.99986  -0.01646  -0.00336
           Y            0.01646   0.99986  -0.00188
           Z            0.00339   0.00182   0.99999
 This molecule is an asymmetric top.
 Rotational symmetry number  1.
 Warning -- assumption of classical behavior for rotation
           may cause significant error
 Rotational temperatures (Kelvin)      0.08245     0.02588     0.02198
 Rotational constants (GHZ):           1.71803     0.53934     0.45805
    1 imaginary frequencies ignored.
 Zero-point vibrational energy     689993.2 (Joules/Mol)
                                  164.91234 (Kcal/Mol)
 Warning -- explicit consideration of  20 degrees of freedom as
           vibrations may cause significant error
 Vibrational temperatures:     45.65    81.84   131.61   162.22   178.27
          (Kelvin)            292.05   320.39   339.98   359.58   365.34
                              396.94   460.65   543.26   571.97   605.49
                              641.78   667.53   688.80   795.99   834.32
                              970.18  1091.28  1189.78  1209.78  1265.57
                             1331.33  1339.15  1358.80  1374.72  1381.88
                             1388.18  1422.51  1454.41  1463.04  1513.42
                             1548.59  1592.45  1627.29  1647.76  1670.28
                             1708.39  1714.29  1790.37  1831.89  1891.75
                             1900.77  1926.71  1948.98  1971.83  1975.89
                             2002.64  2016.90  2020.42  2021.59  2047.33
                             2105.67  2124.64  2142.42  2147.85  2152.97
                             2159.99  2163.84  2168.05  2176.53  2256.69
                             4296.03  4315.81  4334.81  4342.92  4353.70
                             4366.76  4380.18  4383.37  4410.66  4419.54
                             4429.91  4437.66  4439.78  4442.78  4447.48
                             4448.75  4465.88  4565.56

 Zero-point correction=                           0.262805 (Hartree/Particle)
 Thermal correction to Energy=                    0.276076
 Thermal correction to Enthalpy=                  0.277020
 Thermal correction to Gibbs Free Energy=         0.222399
 Sum of electronic and zero-point Energies=           -504.566640
 Sum of electronic and thermal Energies=              -504.553369
 Sum of electronic and thermal Enthalpies=            -504.552425
 Sum of electronic and thermal Free Energies=         -504.607046

                     E (Thermal)             CV                S
                      KCal/Mol        Cal/Mol-Kelvin    Cal/Mol-Kelvin
 Total                  173.240             50.167            114.960
 Electronic               0.000              0.000              1.377
 Translational            0.889              2.981             41.103
 Rotational               0.889              2.981             31.005
 Vibrational            171.463             44.205             41.475
 Vibration     1          0.594              1.983              5.718
 Vibration     2          0.596              1.975              4.563
 Vibration     3          0.602              1.955              3.628
 Vibration     4          0.607              1.939              3.221
 Vibration     5          0.610              1.929              3.039
 Vibration     6          0.639              1.836              2.106
 Vibration     7          0.648              1.807              1.937
 Vibration     8          0.655              1.785              1.831
 Vibration     9          0.663              1.763              1.731
 Vibration    10          0.665              1.756              1.703
 Vibration    11          0.678              1.718              1.559
 Vibration    12          0.706              1.635              1.309
 Vibration    13          0.748              1.518              1.049
 Vibration    14          0.764              1.475              0.972
 Vibration    15          0.783              1.425              0.889
 Vibration    16          0.805              1.370              0.808
 Vibration    17          0.821              1.330              0.755
 Vibration    18          0.835              1.297              0.713
 Vibration    19          0.909              1.133              0.538
 Vibration    20          0.937              1.075              0.486

 Optimization completed.
    -- Stationary point found.
 Normal termination of Gaussian 09 at Mon Feb 17 03:49:03 2014.

 -----------------------------------------------------------
 #P Geom=AllCheck Guess=TCheck SCRF=Check CCSD(T)/6-31+G(d')
 -----------------------------------------------------------

 Structure from the checkpoint file:  TS_3_3a.chk
 ------------------------------------
 TS_3_3a using cbs-qb3 to cal. energy
 ------------------------------------
 Charge =  0 Multiplicity = 2

 SCF Done:  E(UHF) =  -501.406218877     A.U. after   22 cycles
 E2 =    -0.1586584196D+01 EUMP2 =    -0.50299280307293D+03
 CCSD(T)
 CCSD(T)= -0.50316746655D+03
 822145\MP4SDQ=-503.1070034\CCSD=-503.1102797\CCSD(T)=-503.1674665\S2=0
 Normal termination of Gaussian 09 at Mon Feb 17 19:00:50 2014.

 -----------------------------------------------------
 #P Geom=AllCheck Guess=TCheck SCRF=Check MP4SDQ/CBSB4
 -----------------------------------------------------

 Structure from the checkpoint file:  TS_3_3a.chk
 ------------------------------------
 TS_3_3a using cbs-qb3 to cal. energy
 ------------------------------------
 Charge =  0 Multiplicity = 2

 SCF Done:  E(UHF) =  -501.436915156     A.U. after   19 cycles
 E2 =    -0.1713402122D+01 EUMP2 =    -0.50315031727776D+03
 Normal termination of Gaussian 09 at Mon Feb 17 19:27:47 2014.

 ----------------------------------------------------------------------
 #P Geom=AllCheck Guess=TCheck SCRF=Check MP2/CBSB3 CBSExtrap=(NMin=10,
 MinPop)
 ----------------------------------------------------------------------

 Structure from the checkpoint file:  TS_3_3a.chk
 ------------------------------------
 TS_3_3a using cbs-qb3 to cal. energy
 ------------------------------------
 Charge =  0 Multiplicity = 2

                         Standard orientation:
 ---------------------------------------------------------------------
 Center     Atomic      Atomic             Coordinates (Angstroms)
 Number     Number       Type             X           Y           Z
 ---------------------------------------------------------------------
      1          6           0       -2.467466    2.026161   -0.300749
      2          1           0       -2.109034    2.410214   -1.260816
      3          1           0       -1.835129    2.437658    0.489301
      4          1           0       -3.480594    2.403866   -0.145499
      5          6           0       -2.464934    0.484028   -0.287051
      6          1           0       -3.170277    0.137905   -1.048817
      7          6           0        0.137794    0.342112    0.068531
      8          1           0        0.005382    0.071281    1.119474
      9          1           0        0.189524    1.433166    0.019238
     10          6           0        1.439772   -0.276843   -0.456972
     11          1           0        1.608621    0.051681   -1.492081
     12          1           0        1.312162   -1.362252   -0.495763
     13          6           0        2.691628    0.046351    0.379656
     14          1           0        2.486447   -0.264830    1.413127
     15          6           0        3.892916   -0.766893   -0.122168
     16          1           0        4.142566   -0.498295   -1.154617
     17          1           0        4.780019   -0.584080    0.491278
     18          1           0        3.683587   -1.840043   -0.099082
     19          6           0       -2.899936   -0.084564    1.041957
     20          1           0       -2.474393    0.372204    1.934630
     21          1           0       -3.948058   -0.356106    1.145140
     22          1           0       -2.211649   -1.309085    0.980300
     23          6           0        3.023991    1.545409    0.395335
     24          1           0        3.926407    1.739543    0.982272
     25          1           0        3.204581    1.913997   -0.620912
     26          1           0        2.218174    2.142953    0.829089
     27          6           0       -1.086719   -0.109106   -0.729541
     28          1           0       -0.938698    0.117553   -1.791216
     29          8           0       -1.248830   -1.537498   -0.743925
     30          8           0       -1.375159   -1.994660    0.590296
 ---------------------------------------------------------------------

 SCF Done:  E(UHF) =  -501.574345396     A.U. after   17 cycles
 E2 =    -0.2017021280D+01 EUMP2 =    -0.50359136667600D+03
 E2(CBS)=      -2.214106 CBS-Int=       0.065991 OIii=      17.332344

 The electronic state is 2-A.
 Alpha  occ. eigenvalues --  -20.61967 -20.60721 -11.28821 -11.26160 -11.24691
 Alpha  occ. eigenvalues --  -11.23212 -11.22194 -11.21994 -11.21122 -11.20858
 Alpha  occ. eigenvalues --  -11.20537  -1.47669  -1.20494  -1.10709  -1.08693
 Alpha  occ. eigenvalues --   -1.01267  -0.96255  -0.92556  -0.91001  -0.84294
 Alpha  occ. eigenvalues --   -0.78073  -0.76259  -0.71750  -0.67900  -0.66246
 Alpha  occ. eigenvalues --   -0.62404  -0.61313  -0.60366  -0.58834  -0.58037
 Alpha  occ. eigenvalues --   -0.57035  -0.56382  -0.54466  -0.54127  -0.53171
 Alpha  occ. eigenvalues --   -0.52094  -0.51068  -0.49257  -0.49049  -0.47659
 Alpha  occ. eigenvalues --   -0.45573  -0.45448  -0.44900  -0.43159  -0.38054
 Alpha virt. eigenvalues --    0.03393   0.04478   0.04834   0.05292   0.06277
 Alpha virt. eigenvalues --    0.06487   0.06598   0.07546   0.07936   0.08587
 Alpha virt. eigenvalues --    0.08729   0.09270   0.09697   0.10192   0.11653

  Beta  occ. eigenvalues --  -20.60788 -20.59727 -11.28723 -11.24886 -11.24165
  Beta  occ. eigenvalues --  -11.23044 -11.22193 -11.22002 -11.21119 -11.20858
  Beta  occ. eigenvalues --  -11.20537  -1.45152  -1.16676  -1.09392  -1.08064
  Beta  occ. eigenvalues --   -1.00893  -0.92998  -0.92551  -0.89732  -0.83251
  Beta  occ. eigenvalues --   -0.76587  -0.76246  -0.67871  -0.66062  -0.65773
  Beta  occ. eigenvalues --   -0.62231  -0.60414  -0.59606  -0.58534  -0.57622
  Beta  occ. eigenvalues --   -0.56312  -0.54752  -0.53279  -0.53108  -0.51226
  Beta  occ. eigenvalues --   -0.51074  -0.49575  -0.48886  -0.47861  -0.46549
  Beta  occ. eigenvalues --   -0.45514  -0.44875  -0.44268  -0.41240
  Beta virt. eigenvalues --    0.03249   0.04400   0.04856   0.05163   0.05828
  Beta virt. eigenvalues --    0.06466   0.06503   0.06945   0.07594   0.08206
  Beta virt. eigenvalues --    0.08609   0.08738   0.09366   0.09870   0.10563

 Mulliken atomic charges:
              1
     1  C   -0.521068
     2  H    0.062755
     3  H    0.085908
     4  H    0.095314
     5  C    0.795680
     6  H    0.103736
     7  C   -0.102328
     8  H    0.102968
     9  H    0.019118
    10  C   -0.713686
    11  H    0.074199
    12  H    0.076633
    13  C    0.902498
    14  H    0.039003
    15  C   -0.407730
    16  H    0.052523
    17  H    0.096156
    18  H    0.063665
    19  C   -0.671087
    20  H    0.093439
    21  H    0.132669
    22  H    0.293249
    23  C   -0.595593
    24  H    0.088642
    25  H    0.065390
    26  H    0.061090
    27  C   -0.012925
    28  H    0.116176
    29  O   -0.121542
    30  O   -0.274850
 Sum of Mulliken atomic charges =   0.00000

 Dipole moment (field-independent basis, Debye):
    X=             -1.1533    Y=              3.4292    Z=              0.4611  Tot=              3.6472
 Quadrupole moment (field-independent basis, Debye-Ang):
   XX=            -66.0737   YY=            -79.8001   ZZ=            -70.1247
   XY=             -4.6106   XZ=             -1.5858   YZ=             -1.1279

    1 imaginary frequencies ignored.
 Normal termination of Gaussian 09 at Mon Feb 17 21:00:10 2014.
