 Gaussian 09, Revision C.01,
 Gaussian 09:  EM64L-G09RevC.01 23-Sep-2011

 -------------------------------
 #p cbs-qb3 opt=(ts,calcfc) freq
 -------------------------------

 (Enter /usr/caen/gaussian-09revc/g09/l101.exe)
 ----------------------------------------------------
 TS_3_C9H18_2 using B3LYP/6-311++g(d,p) to calc. freq
 ----------------------------------------------------
 Charge =  0 Multiplicity = 2

 SCF Done:  E(UB3LYP) =  -504.829167136     A.U. after   19 cycles
 SCF Done:  E(UB3LYP) =  -504.829218977     A.U. after   14 cycles
 SCF Done:  E(UB3LYP) =  -504.829219123     A.U. after   11 cycles
 SCF Done:  E(UB3LYP) =  -504.829219111     A.U. after    9 cycles
 Optimization completed.
    -- Stationary point found.
 Normal termination of Gaussian 09 at Mon Feb 24 15:30:41 2014.

 ---------------------------------------------------------
 #P Geom=AllCheck Guess=TCheck SCRF=Check B3LYP/CBSB7 Freq
 ---------------------------------------------------------

 Structure from the checkpoint file:  TS_3_C9H18_2.chk
 ----------------------------------------------------
 TS_3_C9H18_2 using B3LYP/6-311++g(d,p) to calc. freq
 ----------------------------------------------------
 Charge =  0 Multiplicity = 2

 SCF Done:  E(UB3LYP) =  -504.829219111     A.U. after    1 cycles

  Exact polarizability: 143.213   2.014 117.948   3.198  -1.373  99.452
 Approx polarizability: 182.252  -5.190 188.825  16.066 -13.450 155.310

 ******    1 imaginary frequencies (negative Signs) ******

                     1                      2                      3
                     A                      A                      A
 Frequencies --  -919.8121                32.1996                51.9512
 Red. masses --     1.5379                 2.7369                 3.7798
 Frc consts  --     0.7666                 0.0017                 0.0060
 IR Inten    --   156.3889                 0.3469                 0.7671

                     4                      5                      6
                     A                      A                      A
 Frequencies --    88.1950               108.9644               115.8193
 Red. masses --     3.4819                 3.1059                 2.2050
 Frc consts  --     0.0160                 0.0217                 0.0174
 IR Inten    --     0.4434                 1.1992                 0.2602

                     7                      8                      9
                     A                      A                      A
 Frequencies --   148.8847               173.0656               198.2970
 Red. masses --     3.3457                 1.1631                 2.1796
 Frc consts  --     0.0437                 0.0205                 0.0505
 IR Inten    --     0.9710                 0.1159                 2.0062

                    10                     11                     12
                     A                      A                      A
 Frequencies --   203.2470               225.6906               229.1434
 Red. masses --     1.5440                 1.3480                 1.5237
 Frc consts  --     0.0376                 0.0405                 0.0471
 IR Inten    --     0.5381                 0.6830                 2.2255

                    13                     14                     15
                     A                      A                      A
 Frequencies --   247.2970               256.0114               276.5891
 Red. masses --     2.1871                 1.3980                 2.4904
 Frc consts  --     0.0788                 0.0540                 0.1123
 IR Inten    --     2.3845                 0.4795                 2.1387

                    16                     17                     18
                     A                      A                      A
 Frequencies --   359.3113               378.4188               407.9444
 Red. masses --     3.1125                 2.1998                 2.5962
 Frc consts  --     0.2368                 0.1856                 0.2546
 IR Inten    --    15.4975                 0.5044                12.4031

                    19                     20                     21
                     A                      A                      A
 Frequencies --   433.6422               460.5487               542.6529
 Red. masses --     2.2908                 2.4031                 2.8637
 Frc consts  --     0.2538                 0.3003                 0.4968
 IR Inten    --     0.4232                 1.0457                 3.5142

                    22                     23                     24
                     A                      A                      A
 Frequencies --   558.6930               670.9209               735.3135
 Red. masses --     2.4436                 5.5800                 1.2277
 Frc consts  --     0.4494                 1.4799                 0.3911
 IR Inten    --    11.7570                 5.2515                 9.5675

                    25                     26                     27
                     A                      A                      A
 Frequencies --   814.9474               846.6197               869.9502
 Red. masses --     2.5403                 2.5142                 1.2540
 Frc consts  --     0.9940                 1.0617                 0.5591
 IR Inten    --     4.5294                 7.6342                 2.7097

                    28                     29                     30
                     A                      A                      A
 Frequencies --   929.3706               944.7866               964.7834
 Red. masses --     1.2213                 1.7291                 1.3905
 Frc consts  --     0.6215                 0.9093                 0.7626
 IR Inten    --     1.6725                 0.9407                 1.0941

                    31                     32                     33
                     A                      A                      A
 Frequencies --   965.8763               985.1736              1006.6225
 Red. masses --     1.4157                 1.6419                 1.3145
 Frc consts  --     0.7781                 0.9389                 0.7848
 IR Inten    --     1.2509                 4.8293                 2.7631

                    34                     35                     36
                     A                      A                      A
 Frequencies --  1021.4727              1046.9407              1104.9865
 Red. masses --     2.2855                 2.5890                 1.4810
 Frc consts  --     1.4051                 1.6719                 1.0654
 IR Inten    --     8.7359                 2.6380                 8.1635

                    37                     38                     39
                     A                      A                      A
 Frequencies --  1122.9263              1132.3341              1137.3406
 Red. masses --     1.6784                 1.9668                 1.8614
 Frc consts  --     1.2469                 1.4858                 1.4187
 IR Inten    --    14.0810                 1.7286                29.5067

                    40                     41                     42
                     A                      A                      A
 Frequencies --  1190.4122              1192.3880              1232.7701
 Red. masses --     2.1105                 1.8158                 1.4526
 Frc consts  --     1.7621                 1.5211                 1.3006
 IR Inten    --     1.5493                 6.0821                 2.0504

                    43                     44                     45
                     A                      A                      A
 Frequencies --  1255.2869              1285.1844              1319.8731
 Red. masses --     1.1625                 1.4800                 1.1910
 Frc consts  --     1.0793                 1.4402                 1.2225
 IR Inten    --    13.5338                28.1031                 3.6625

                    46                     47                     48
                     A                      A                      A
 Frequencies --  1321.2264              1342.3370              1366.2619
 Red. masses --     4.5020                 1.3741                 1.5189
 Frc consts  --     4.6303                 1.4588                 1.6705
 IR Inten    --   155.3890                 0.2758                 9.6650

                    49                     50                     51
                     A                      A                      A
 Frequencies --  1373.1278              1396.1234              1403.1143
 Red. masses --     1.3352                 1.5462                 1.2591
 Frc consts  --     1.4833                 1.7757                 1.4605
 IR Inten    --     5.7332                 1.6515                 7.8170

                    52                     53                     54
                     A                      A                      A
 Frequencies --  1408.7972              1422.7618              1425.6463
 Red. masses --     1.2374                 1.2399                 1.2562
 Frc consts  --     1.4470                 1.4787                 1.5043
 IR Inten    --     5.9007                 4.1955                 2.3761

                    55                     56                     57
                     A                      A                      A
 Frequencies --  1459.2689              1484.6453              1487.6004
 Red. masses --     1.0742                 1.0461                 1.0634
 Frc consts  --     1.3478                 1.3586                 1.3865
 IR Inten    --     2.6629                 0.5055                 0.3396

                    58                     59                     60
                     A                      A                      A
 Frequencies --  1493.0293              1494.3022              1498.6466
 Red. masses --     1.0679                 1.1013                 1.0516
 Frc consts  --     1.4025                 1.4488                 1.3915
 IR Inten    --     0.9996                 9.8038                 9.6815

                    61                     62                     63
                     A                      A                      A
 Frequencies --  1500.8598              1504.5760              1507.3640
 Red. masses --     1.0730                 1.0760                 1.0554
 Frc consts  --     1.4240                 1.4351                 1.4129
 IR Inten    --     3.1441                 3.4487                 3.9456

                    64                     65                     66
                     A                      A                      A
 Frequencies --  1513.9076              1565.6894              1590.1401
 Red. masses --     1.0483                 1.2197                 2.3234
 Frc consts  --     1.4155                 1.7616                 3.4614
 IR Inten    --    15.6616                43.1904                19.5913

                    67                     68                     69
                     A                      A                      A
 Frequencies --  2978.7650              2986.4751              3002.0617
 Red. masses --     1.0702                 1.0793                 1.0703
 Frc consts  --     5.5947                 5.6716                 5.6834
 IR Inten    --    13.5062                 3.1545                25.1620

                    70                     71                     72
                     A                      A                      A
 Frequencies --  3014.2944              3015.1215              3018.7966
 Red. masses --     1.0365                 1.0389                 1.0411
 Frc consts  --     5.5488                 5.5644                 5.5900
 IR Inten    --    30.5277                26.6532                45.8197

                    73                     74                     75
                     A                      A                      A
 Frequencies --  3019.7582              3037.0423              3068.6812
 Red. masses --     1.0388                 1.0854                 1.0958
 Frc consts  --     5.5812                 5.8986                 6.0799
 IR Inten    --    31.1207                21.0918                 7.7378

                    76                     77                     78
                     A                      A                      A
 Frequencies --  3072.0534              3073.5259              3076.1530
 Red. masses --     1.0988                 1.1000                 1.0949
 Frc consts  --     6.1100                 6.1225                 6.1041
 IR Inten    --    16.0734                 5.7716                30.4698

                    79                     80                     81
                     A                      A                      A
 Frequencies --  3080.7483              3086.8855              3088.9779
 Red. masses --     1.0992                 1.1016                 1.1006
 Frc consts  --     6.1467                 6.1845                 6.1871
 IR Inten    --    82.3573                29.8039                61.2439

                    82                     83                     84
                     A                      A                      A
 Frequencies --  3096.1241              3106.4654              3149.8679
 Red. masses --     1.1015                 1.0997                 1.0888
 Frc consts  --     6.2210                 6.2527                 6.3648
 IR Inten    --    24.9938                27.3677                13.7392

 - Thermochemistry -
 -------------------
 Temperature   298.150 Kelvin.  Pressure   1.00000 Atm.
 Atom     1 has atomic number  6 and mass  12.00000

 Molecular mass:   159.13850 amu.
 Principal axes and moments of inertia in atomic units:
                           1         2         3
     Eigenvalues --  1073.685823806.545104371.58828
           X            0.99982   0.01875  -0.00259
           Y           -0.01865   0.99916   0.03645
           Z            0.00327  -0.03640   0.99933
 This molecule is an asymmetric top.
 Rotational symmetry number  1.
 Warning -- assumption of classical behavior for rotation
           may cause significant error
 Rotational temperatures (Kelvin)      0.08067     0.02275     0.01981
 Rotational constants (GHZ):           1.68088     0.47412     0.41283
    1 imaginary frequencies ignored.
 Zero-point vibrational energy     686680.8 (Joules/Mol)
                                  164.12065 (Kcal/Mol)
 Warning -- explicit consideration of  21 degrees of freedom as
           vibrations may cause significant error
 Vibrational temperatures:     46.33    74.75   126.89   156.78   166.64
          (Kelvin)            214.21   249.00   285.30   292.43   324.72
                              329.69   355.80   368.34   397.95   516.97
                              544.46   586.94   623.91   662.63   780.76
                              803.83   965.30  1057.95  1172.53  1218.10
                             1251.66  1337.16  1359.34  1388.11  1389.68
                             1417.44  1448.30  1469.67  1506.31  1589.83
                             1615.64  1629.17  1636.38  1712.74  1715.58
                             1773.68  1806.08  1849.09  1899.00  1900.95
                             1931.32  1965.74  1975.62  2008.71  2018.77
                             2026.94  2047.03  2051.18  2099.56  2136.07
                             2140.32  2148.13  2149.96  2156.22  2159.40
                             2164.75  2168.76  2178.17  2252.68  2287.85
                             4285.77  4296.87  4319.29  4336.89  4338.08
                             4343.37  4344.75  4369.62  4415.14  4419.99
                             4422.11  4425.89  4432.50  4441.33  4444.34
                             4454.63  4469.51  4531.95

 Zero-point correction=                           0.261543 (Hartree/Particle)
 Thermal correction to Energy=                    0.276027
 Thermal correction to Enthalpy=                  0.276971
 Thermal correction to Gibbs Free Energy=         0.219503
 Sum of electronic and zero-point Energies=           -504.567676
 Sum of electronic and thermal Energies=              -504.553192
 Sum of electronic and thermal Enthalpies=            -504.552248
 Sum of electronic and thermal Free Energies=         -504.609716

                     E (Thermal)             CV                S
                      KCal/Mol        Cal/Mol-Kelvin    Cal/Mol-Kelvin
 Total                  173.210             52.167            120.951
 Electronic               0.000              0.000              1.377
 Translational            0.889              2.981             41.103
 Rotational               0.889              2.981             31.258
 Vibrational            171.432             46.205             47.213
 Vibration     1          0.594              1.983              5.689
 Vibration     2          0.596              1.977              4.742
 Vibration     3          0.601              1.957              3.700
 Vibration     4          0.606              1.942              3.287
 Vibration     5          0.608              1.936              3.169
 Vibration     6          0.618              1.904              2.686
 Vibration     7          0.627              1.876              2.402
 Vibration     8          0.637              1.842              2.149
 Vibration     9          0.639              1.835              2.104
 Vibration    10          0.650              1.802              1.913
 Vibration    11          0.652              1.797              1.886
 Vibration    12          0.661              1.767              1.750
 Vibration    13          0.666              1.753              1.689
 Vibration    14          0.678              1.717              1.555
 Vibration    15          0.734              1.556              1.125
 Vibration    16          0.749              1.516              1.045
 Vibration    17          0.773              1.453              0.934
 Vibration    18          0.794              1.397              0.847
 Vibration    19          0.818              1.338              0.765
 Vibration    20          0.898              1.156              0.560
 Vibration    21          0.914              1.121              0.526

 Optimization completed.
    -- Stationary point found.
 Normal termination of Gaussian 09 at Mon Feb 24 15:46:17 2014.

 -----------------------------------------------------------
 #P Geom=AllCheck Guess=TCheck SCRF=Check CCSD(T)/6-31+G(d')
 -----------------------------------------------------------

 Structure from the checkpoint file:  TS_3_C9H18_2.chk
 ----------------------------------------------------
 TS_3_C9H18_2 using B3LYP/6-311++g(d,p) to calc. freq
 ----------------------------------------------------
 Charge =  0 Multiplicity = 2

 SCF Done:  E(UHF) =  -501.389915608     A.U. after   29 cycles
 E2 =    -0.1598672993D+01 EUMP2 =    -0.50298858860134D+03
 CCSD(T)
 CCSD(T)= -0.50316299774D+03
 4\PMP3-0=-503.0727507\MP4SDQ=-503.0978042\CCSD=-503.1014512\CCSD(T)=-5
 Normal termination of Gaussian 09 at Tue Feb 25 10:49:07 2014.

 -----------------------------------------------------
 #P Geom=AllCheck Guess=TCheck SCRF=Check MP4SDQ/CBSB4
 -----------------------------------------------------

 Structure from the checkpoint file:  TS_3_C9H18_2.chk
 ----------------------------------------------------
 TS_3_C9H18_2 using B3LYP/6-311++g(d,p) to calc. freq
 ----------------------------------------------------
 Charge =  0 Multiplicity = 2

 SCF Done:  E(UHF) =  -501.418749403     A.U. after   27 cycles
 E2 =    -0.1724223455D+01 EUMP2 =    -0.50314297285834D+03
 Normal termination of Gaussian 09 at Tue Feb 25 11:12:31 2014.

 ----------------------------------------------------------------------
 #P Geom=AllCheck Guess=TCheck SCRF=Check MP2/CBSB3 CBSExtrap=(NMin=10,
 MinPop)
 ----------------------------------------------------------------------

 Structure from the checkpoint file:  TS_3_C9H18_2.chk
 ----------------------------------------------------
 TS_3_C9H18_2 using B3LYP/6-311++g(d,p) to calc. freq
 ----------------------------------------------------
 Charge =  0 Multiplicity = 2

                         Standard orientation:
 ---------------------------------------------------------------------
 Center     Atomic      Atomic             Coordinates (Angstroms)
 Number     Number       Type             X           Y           Z
 ---------------------------------------------------------------------
      1          6           0       -3.362360   -0.625672    1.153878
      2          1           0       -3.218049    0.097348    1.960319
      3          1           0       -3.405922   -1.625542    1.599539
      4          1           0       -4.336881   -0.427817    0.698597
      5          6           0       -2.239266   -0.536676    0.117917
      6          1           0       -2.451553    0.643981   -0.415303
      7          6           0        0.331864   -0.521105   -0.109435
      8          1           0        0.240512   -0.350249   -1.187941
      9          1           0        0.494033   -1.603743    0.002145
     10          6           0        1.538025    0.251753    0.440138
     11          1           0        1.655665    0.026511    1.508916
     12          1           0        1.319712    1.321094    0.370195
     13          6           0        2.870100   -0.031455   -0.278482
     14          1           0        2.714669    0.156484   -1.349857
     15          6           0        3.956024    0.936491    0.211581
     16          1           0        4.151085    0.795124    1.280339
     17          1           0        4.898168    0.777316   -0.320791
     18          1           0        3.657563    1.977963    0.062484
     19          6           0       -2.400677   -1.490273   -1.065371
     20          1           0       -2.262573   -2.531323   -0.751519
     21          1           0       -3.404829   -1.407770   -1.489265
     22          1           0       -1.687694   -1.286118   -1.866040
     23          6           0        3.333335   -1.486680   -0.116385
     24          1           0        3.476366   -1.732393    0.941929
     25          1           0        4.287329   -1.651336   -0.625444
     26          1           0        2.616087   -2.199818   -0.530868
     27          6           0       -0.961494   -0.189154    0.571288
     28          1           0       -0.877774    0.209428    1.578308
     29          8           0       -1.071839    1.975711   -0.156005
     30          8           0       -2.210564    1.895225   -0.721059
 ---------------------------------------------------------------------

 SCF Done:  E(UHF) =  -501.555703071     A.U. after   22 cycles
 E2 =    -0.2026651625D+01 EUMP2 =    -0.50358235469656D+03
 E2(CBS)=      -2.222121 CBS-Int=       0.065864 OIii=      17.197028

 The electronic state is 2-A.
 Alpha  occ. eigenvalues --  -20.63825 -20.62060 -11.29179 -11.24406 -11.23487
 Alpha  occ. eigenvalues --  -11.23184 -11.22822 -11.22745 -11.22513 -11.21640
 Alpha  occ. eigenvalues --  -11.21298  -1.55185  -1.12883  -1.11606  -1.09263
 Alpha  occ. eigenvalues --   -1.02684  -0.94741  -0.93377  -0.92976  -0.85682
 Alpha  occ. eigenvalues --   -0.77446  -0.75297  -0.71992  -0.71888  -0.65066
 Alpha  occ. eigenvalues --   -0.63961  -0.63448  -0.62427  -0.60286  -0.59248
 Alpha  occ. eigenvalues --   -0.59073  -0.56457  -0.54882  -0.53948  -0.53541
 Alpha  occ. eigenvalues --   -0.52750  -0.51110  -0.50746  -0.48739  -0.46623
 Alpha  occ. eigenvalues --   -0.46563  -0.46418  -0.45986  -0.45314  -0.37312
 Alpha virt. eigenvalues --    0.03484   0.04384   0.04639   0.05383   0.06197
 Alpha virt. eigenvalues --    0.06360   0.06570   0.07385   0.07834   0.08441
 Alpha virt. eigenvalues --    0.08800   0.09222   0.09473   0.10026   0.11094

  Beta  occ. eigenvalues --  -20.60043 -20.59294 -11.29816 -11.24329 -11.23182
  Beta  occ. eigenvalues --  -11.23085 -11.22854 -11.22780 -11.22525 -11.21641
  Beta  occ. eigenvalues --  -11.21299  -1.46883  -1.13359  -1.09381  -1.03243
  Beta  occ. eigenvalues --   -0.98823  -0.94791  -0.93684  -0.93296  -0.85663
  Beta  occ. eigenvalues --   -0.77470  -0.74754  -0.69309  -0.64491  -0.63868
  Beta  occ. eigenvalues --   -0.62779  -0.60581  -0.59353  -0.59092  -0.58503
  Beta  occ. eigenvalues --   -0.56555  -0.54771  -0.53950  -0.53631  -0.52839
  Beta  occ. eigenvalues --   -0.51115  -0.50877  -0.48555  -0.47546  -0.46604
  Beta  occ. eigenvalues --   -0.46501  -0.45990  -0.39962  -0.33686
  Beta virt. eigenvalues --    0.03451   0.04363   0.04643   0.05380   0.06200
  Beta virt. eigenvalues --    0.06338   0.06495   0.07310   0.07785   0.08444
  Beta virt. eigenvalues --    0.08706   0.08928   0.09195   0.09844   0.10520

 Mulliken atomic charges:
              1
     1  C   -0.272259
     2  H    0.080917
     3  H    0.048362
     4  H    0.093835
     5  C   -0.558656
     6  H    0.481473
     7  C   -0.699226
     8  H    0.079664
     9  H    0.048853
    10  C   -0.708098
    11  H    0.059705
    12  H    0.117156
    13  C    0.892595
    14  H    0.044437
    15  C   -0.425009
    16  H    0.052555
    17  H    0.102890
    18  H    0.065016
    19  C   -0.270930
    20  H    0.064643
    21  H    0.125484
    22  H    0.084131
    23  C   -0.553497
    24  H    0.064308
    25  H    0.089522
    26  H    0.070346
    27  C    0.960146
    28  H    0.245301
    29  O   -0.074480
    30  O   -0.309182
 Sum of Mulliken atomic charges =   0.00000

 Dipole moment (field-independent basis, Debye):
    X=              1.1132    Y=             -3.6980    Z=              1.1546  Tot=              4.0308
 Quadrupole moment (field-independent basis, Debye-Ang):
   XX=            -71.4774   YY=            -80.2470   ZZ=            -70.4831
   XY=              6.5653   XZ=             -2.5703   YZ=              2.4203

    1 imaginary frequencies ignored.
 Normal termination of Gaussian 09 at Tue Feb 25 12:21:28 2014.
