 Gaussian 09, Revision C.01,
 Gaussian 09:  EM64L-G09RevC.01 23-Sep-2011

 -------------------------------
 #p cbs-qb3 opt=(TS,calcfc) freq
 -------------------------------

 (Enter /usr/caen/gaussian-09revc/g09/l101.exe)
 ------------------------------------
 TS_3_3d using cbs-qb3 to cal. energy
 ------------------------------------
 Charge =  0 Multiplicity = 2

 SCF Done:  E(UB3LYP) =  -504.818157065     A.U. after   22 cycles
 SCF Done:  E(UB3LYP) =  -504.818212026     A.U. after   14 cycles
 SCF Done:  E(UB3LYP) =  -504.818212325     A.U. after   12 cycles
 Optimization completed.
    -- Stationary point found.
 Normal termination of Gaussian 09 at Mon Feb 17 05:06:21 2014.

 ---------------------------------------------------------
 #P Geom=AllCheck Guess=TCheck SCRF=Check B3LYP/CBSB7 Freq
 ---------------------------------------------------------

 Structure from the checkpoint file:  TS_3_3d.chk
 ------------------------------------
 TS_3_3d using cbs-qb3 to cal. energy
 ------------------------------------
 Charge =  0 Multiplicity = 2

 SCF Done:  E(UB3LYP) =  -504.818212325     A.U. after    1 cycles

  Exact polarizability: 141.533   6.664 111.577  -0.941  -2.195 100.332
 Approx polarizability: 161.509  13.455 170.147   0.837 -10.142 162.134

 ******    1 imaginary frequencies (negative Signs) ******

                     1                      2                      3
                     A                      A                      A
 Frequencies -- -2131.5207                41.2944                55.0512
 Red. masses --     1.1046                 2.9439                 3.1479
 Frc consts  --     2.9568                 0.0030                 0.0056
 IR Inten    --  1021.3534                 0.4878                 0.6866

                     4                      5                      6
                     A                      A                      A
 Frequencies --    64.4818               105.0410               134.5524
 Red. masses --     2.9137                 3.0251                 2.7744
 Frc consts  --     0.0071                 0.0197                 0.0296
 IR Inten    --     0.4946                 0.6062                 0.5631

                     7                      8                      9
                     A                      A                      A
 Frequencies --   182.7618               211.0029               224.4105
 Red. masses --     3.5901                 1.0961                 1.3752
 Frc consts  --     0.0707                 0.0288                 0.0408
 IR Inten    --     3.1132                 0.0202                 0.2863

                    10                     11                     12
                     A                      A                      A
 Frequencies --   229.0477               233.4022               259.2392
 Red. masses --     1.0909                 2.4620                 1.1778
 Frc consts  --     0.0337                 0.0790                 0.0466
 IR Inten    --     0.0063                 0.1088                 0.2169

                    13                     14                     15
                     A                      A                      A
 Frequencies --   267.3711               325.9691               358.0379
 Red. masses --     2.0219                 3.1219                 2.3522
 Frc consts  --     0.0852                 0.1954                 0.1777
 IR Inten    --     1.4081                 1.9621                 0.2621

                    16                     17                     18
                     A                      A                      A
 Frequencies --   403.9420               409.7024               436.1629
 Red. masses --     2.2828                 2.4212                 2.1445
 Frc consts  --     0.2195                 0.2395                 0.2404
 IR Inten    --     0.5113                 1.3964                 1.3012

                    19                     20                     21
                     A                      A                      A
 Frequencies --   493.9585               503.5532               590.4870
 Red. masses --     2.7863                 3.2851                 3.8726
 Frc consts  --     0.4005                 0.4908                 0.7956
 IR Inten    --     4.8543                 3.0311                 2.0918

                    22                     23                     24
                     A                      A                      A
 Frequencies --   743.4029               797.6576               817.6459
 Red. masses --     2.4990                 1.6821                 2.8402
 Frc consts  --     0.8137                 0.6306                 1.1187
 IR Inten    --     3.1639                 0.1770                 0.9022

                    25                     26                     27
                     A                      A                      A
 Frequencies --   852.0240               890.6611               894.1415
 Red. masses --     2.3965                 4.6974                 2.7857
 Frc consts  --     1.0250                 2.1955                 1.3122
 IR Inten    --     5.1884                14.7280                 3.1851

                    28                     29                     30
                     A                      A                      A
 Frequencies --   932.7515               933.9536               936.9712
 Red. masses --     1.6111                 1.2927                 1.2636
 Frc consts  --     0.8259                 0.6644                 0.6536
 IR Inten    --     5.9048                 2.4723                 5.2469

                    31                     32                     33
                     A                      A                      A
 Frequencies --   946.2307               963.4609               967.8823
 Red. masses --     2.0286                 1.4528                 1.5124
 Frc consts  --     1.0701                 0.7945                 0.8348
 IR Inten    --    10.3556                 0.1019                 0.2768

                    34                     35                     36
                     A                      A                      A
 Frequencies --   983.5882              1007.7349              1062.2060
 Red. masses --     2.2637                 2.1847                 2.1141
 Frc consts  --     1.2903                 1.3072                 1.4054
 IR Inten    --     6.1055                33.9301                 7.2038

                    37                     38                     39
                     A                      A                      A
 Frequencies --  1111.7200              1128.3917              1138.4167
 Red. masses --     1.7220                 1.3582                 2.0698
 Frc consts  --     1.2539                 1.0189                 1.5804
 IR Inten    --     3.5893                 5.8759                 3.9784

                    40                     41                     42
                     A                      A                      A
 Frequencies --  1150.3442              1186.8340              1190.4485
 Red. masses --     1.8332                 1.8655                 1.7644
 Frc consts  --     1.4293                 1.5482                 1.4732
 IR Inten    --     8.1712                 1.1969                10.0501

                    43                     44                     45
                     A                      A                      A
 Frequencies --  1196.7741              1249.7224              1255.8291
 Red. masses --     1.8937                 1.3925                 1.3996
 Frc consts  --     1.5980                 1.2813                 1.3005
 IR Inten    --     0.4885                 2.2241                 8.1266

                    46                     47                     48
                     A                      A                      A
 Frequencies --  1302.4816              1319.2587              1350.6605
 Red. masses --     1.3047                 1.3137                 1.3511
 Frc consts  --     1.3041                 1.3471                 1.4523
 IR Inten    --     6.2966                 3.4380                 1.4284

                    49                     50                     51
                     A                      A                      A
 Frequencies --  1357.8545              1364.9269              1388.2579
 Red. masses --     1.3540                 1.3770                 1.3596
 Frc consts  --     1.4709                 1.5115                 1.5438
 IR Inten    --     4.1770                 4.0563                 1.3380

                    52                     53                     54
                     A                      A                      A
 Frequencies --  1401.7654              1406.2506              1407.5973
 Red. masses --     1.3146                 1.2599                 1.4100
 Frc consts  --     1.5219                 1.4680                 1.6460
 IR Inten    --     8.5870                 9.2169                 4.3497

                    55                     56                     57
                     A                      A                      A
 Frequencies --  1425.2057              1425.7027              1467.4224
 Red. masses --     1.2343                 1.2361                 1.0879
 Frc consts  --     1.4771                 1.4804                 1.3803
 IR Inten    --    10.3399                 6.2775                 3.1337

                    58                     59                     60
                     A                      A                      A
 Frequencies --  1490.7666              1491.2768              1492.1253
 Red. masses --     1.0468                 1.0482                 1.0443
 Frc consts  --     1.3707                 1.3734                 1.3698
 IR Inten    --     0.8318                 0.5175                 5.5947

                    61                     62                     63
                     A                      A                      A
 Frequencies --  1497.4158              1506.3811              1506.6726
 Red. masses --     1.0477                 1.0554                 1.0496
 Frc consts  --     1.3841                 1.4111                 1.4039
 IR Inten    --     3.9593                 3.3976                 7.0158

                    64                     65                     66
                     A                      A                      A
 Frequencies --  1513.9473              1514.5458              1701.3834
 Red. masses --     1.0543                 1.0459                 1.0382
 Frc consts  --     1.4237                 1.4135                 1.7707
 IR Inten    --    11.3595                16.2666                18.7167

                    67                     68                     69
                     A                      A                      A
 Frequencies --  2942.0650              3004.7236              3011.8244
 Red. masses --     1.0703                 1.0816                 1.0820
 Frc consts  --     5.4583                 5.7533                 5.7830
 IR Inten    --    12.7448                 7.0415                 8.4291

                    70                     71                     72
                     A                      A                      A
 Frequencies --  3015.5315              3017.6474              3020.3282
 Red. masses --     1.0369                 1.0394                 1.0496
 Frc consts  --     5.5555                 5.5764                 5.6411
 IR Inten    --    27.0452                19.2331                15.4181

                    73                     74                     75
                     A                      A                      A
 Frequencies --  3020.8067              3033.6266              3045.4899
 Red. masses --     1.0395                 1.0740                 1.0874
 Frc consts  --     5.5888                 5.8235                 5.9421
 IR Inten    --    32.5587                33.2826                 8.8377

                    76                     77                     78
                     A                      A                      A
 Frequencies --  3075.7442              3077.1716              3082.2005
 Red. masses --     1.0995                 1.0985                 1.0989
 Frc consts  --     6.1283                 6.1283                 6.1508
 IR Inten    --     7.9004                 8.2800                62.8976

                    79                     80                     81
                     A                      A                      A
 Frequencies --  3084.2929              3088.7374              3091.2420
 Red. masses --     1.0984                 1.1019                 1.1009
 Frc consts  --     6.1562                 6.1936                 6.1983
 IR Inten    --    56.3806                18.6319                49.1386

                    82                     83                     84
                     A                      A                      A
 Frequencies --  3092.2997              3120.4111              3125.4587
 Red. masses --     1.1012                 1.0989                 1.0855
 Frc consts  --     6.2041                 6.3041                 6.2475
 IR Inten    --    53.4716                14.2804                19.6422

 - Thermochemistry -
 -------------------
 Temperature   298.150 Kelvin.  Pressure   1.00000 Atm.
 Atom     1 has atomic number  6 and mass  12.00000

 Molecular mass:   159.13850 amu.
 Principal axes and moments of inertia in atomic units:
                           1         2         3
     Eigenvalues --   959.538283557.806424039.32663
           X            0.99995  -0.01030   0.00101
           Y            0.01026   0.99945   0.03158
           Z           -0.00133  -0.03157   0.99950
 This molecule is an asymmetric top.
 Rotational symmetry number  1.
 Warning -- assumption of classical behavior for rotation
           may cause significant error
 Rotational temperatures (Kelvin)      0.09027     0.02434     0.02144
 Rotational constants (GHZ):           1.88084     0.50726     0.44679
    1 imaginary frequencies ignored.
 Zero-point vibrational energy     688748.5 (Joules/Mol)
                                  164.61485 (Kcal/Mol)
 Warning -- explicit consideration of  20 degrees of freedom as
           vibrations may cause significant error
 Vibrational temperatures:     59.41    79.21    92.77   151.13   193.59
          (Kelvin)            262.95   303.59   322.88   329.55   335.81
                              372.99   384.69   469.00   515.14   581.18
                              589.47   627.54   710.70   724.50   849.58
                             1069.59  1147.65  1176.41  1225.87  1281.46
                             1286.47  1342.02  1343.75  1348.09  1361.41
                             1386.20  1392.56  1415.16  1449.90  1528.28
                             1599.52  1623.50  1637.93  1655.09  1707.59
                             1712.79  1721.89  1798.07  1806.86  1873.98
                             1898.12  1943.30  1953.65  1963.82  1997.39
                             2016.83  2023.28  2025.22  2050.55  2051.27
                             2111.29  2144.88  2145.61  2146.83  2154.44
                             2167.34  2167.76  2178.23  2179.09  2447.91
                             4232.97  4323.12  4333.34  4338.67  4341.72
                             4345.57  4346.26  4364.71  4381.78  4425.30
                             4427.36  4434.59  4437.60  4444.00  4447.60
                             4449.12  4489.57  4496.83

 Zero-point correction=                           0.262330 (Hartree/Particle)
 Thermal correction to Energy=                    0.276003
 Thermal correction to Enthalpy=                  0.276947
 Thermal correction to Gibbs Free Energy=         0.221416
 Sum of electronic and zero-point Energies=           -504.555882
 Sum of electronic and thermal Energies=              -504.542210
 Sum of electronic and thermal Enthalpies=            -504.541266
 Sum of electronic and thermal Free Energies=         -504.596796

                     E (Thermal)             CV                S
                      KCal/Mol        Cal/Mol-Kelvin    Cal/Mol-Kelvin
 Total                  173.194             50.663            116.873
 Electronic               0.000              0.000              1.377
 Translational            0.889              2.981             41.103
 Rotational               0.889              2.981             31.001
 Vibrational            171.417             44.701             43.392
 Vibration     1          0.594              1.981              5.196
 Vibration     2          0.596              1.976              4.627
 Vibration     3          0.597              1.971              4.315
 Vibration     4          0.605              1.945              3.359
 Vibration     5          0.613              1.919              2.880
 Vibration     6          0.630              1.863              2.300
 Vibration     7          0.643              1.824              2.035
 Vibration     8          0.649              1.804              1.923
 Vibration     9          0.652              1.797              1.886
 Vibration    10          0.654              1.790              1.853
 Vibration    11          0.668              1.747              1.667
 Vibration    12          0.672              1.733              1.613
 Vibration    13          0.710              1.624              1.280
 Vibration    14          0.733              1.559              1.131
 Vibration    15          0.769              1.462              0.948
 Vibration    16          0.774              1.449              0.928
 Vibration    17          0.797              1.391              0.839
 Vibration    18          0.850              1.263              0.673
 Vibration    19          0.859              1.242              0.649
 Vibration    20          0.948              1.052              0.466

 Optimization completed.
    -- Stationary point found.
 Normal termination of Gaussian 09 at Mon Feb 17 05:15:57 2014.

 -----------------------------------------------------------
 #P Geom=AllCheck Guess=TCheck SCRF=Check CCSD(T)/6-31+G(d')
 -----------------------------------------------------------

 Structure from the checkpoint file:  TS_3_3d.chk
 ------------------------------------
 TS_3_3d using cbs-qb3 to cal. energy
 ------------------------------------
 Charge =  0 Multiplicity = 2

 SCF Done:  E(UHF) =  -501.396617792     A.U. after   24 cycles
 E2 =    -0.1584577215D+01 EUMP2 =    -0.50298119500763D+03
 CCSD(T)
 CCSD(T)= -0.50315841838D+03
 1298\MP4SDQ=-503.096835\CCSD=-503.1009805\CCSD(T)=-503.1584184\S2=0.81
 Normal termination of Gaussian 09 at Mon Feb 17 19:34:21 2014.

 -----------------------------------------------------
 #P Geom=AllCheck Guess=TCheck SCRF=Check MP4SDQ/CBSB4
 -----------------------------------------------------

 Structure from the checkpoint file:  TS_3_3d.chk
 ------------------------------------
 TS_3_3d using cbs-qb3 to cal. energy
 ------------------------------------
 Charge =  0 Multiplicity = 2

 SCF Done:  E(UHF) =  -501.426065537     A.U. after   21 cycles
 E2 =    -0.1711567672D+01 EUMP2 =    -0.50313763320866D+03
 Normal termination of Gaussian 09 at Mon Feb 17 19:59:12 2014.

 ----------------------------------------------------------------------
 #P Geom=AllCheck Guess=TCheck SCRF=Check MP2/CBSB3 CBSExtrap=(NMin=10,
 MinPop)
 ----------------------------------------------------------------------

 Structure from the checkpoint file:  TS_3_3d.chk
 ------------------------------------
 TS_3_3d using cbs-qb3 to cal. energy
 ------------------------------------
 Charge =  0 Multiplicity = 2

                         Standard orientation:
 ---------------------------------------------------------------------
 Center     Atomic      Atomic             Coordinates (Angstroms)
 Number     Number       Type             X           Y           Z
 ---------------------------------------------------------------------
      1          6           0       -3.680406   -0.201443   -0.232394
      2          1           0       -3.664049   -1.257463    0.038368
      3          1           0       -3.823277   -0.133168   -1.316679
      4          1           0       -4.544552    0.266487    0.246908
      5          6           0       -2.384042    0.496978    0.195779
      6          1           0       -2.287481    0.405685    1.283546
      7          6           0        0.185580    0.220440    0.193853
      8          1           0        0.025804   -0.815244    1.052832
      9          1           0        0.177422    1.133781    0.785883
     10          6           0        1.425119   -0.022443   -0.625215
     11          1           0        1.488228    0.759063   -1.402339
     12          1           0        1.305291   -0.971564   -1.158819
     13          6           0        2.754220   -0.044468    0.158336
     14          1           0        2.658644   -0.814425    0.934637
     15          6           0        3.906763   -0.452176   -0.768964
     16          1           0        4.046661    0.284970   -1.567321
     17          1           0        4.848015   -0.526008   -0.217320
     18          1           0        3.716528   -1.421374   -1.238455
     19          6           0       -2.413458    1.986432   -0.178047
     20          1           0       -2.500732    2.114590   -1.262540
     21          1           0       -3.274854    2.478740    0.280549
     22          1           0       -1.517655    2.520318    0.149787
     23          6           0        3.055950    1.293668    0.846710
     24          1           0        4.011267    1.249960    1.376929
     25          1           0        3.121704    2.104181    0.112228
     26          1           0        2.290802    1.564708    1.578481
     27          6           0       -1.160207   -0.195725   -0.427781
     28          1           0       -1.174276   -0.068630   -1.518312
     29          8           0       -1.164517   -1.629523   -0.241797
     30          8           0       -0.715559   -1.790751    1.100294
 ---------------------------------------------------------------------

 SCF Done:  E(UHF) =  -501.564007643     A.U. after   23 cycles
 E2 =    -0.2014338964D+01 EUMP2 =    -0.50357834660679D+03
 E2(CBS)=      -2.211261 CBS-Int=       0.066005 OIii=      17.311816

 The electronic state is 2-A.
 Alpha  occ. eigenvalues --  -20.63615 -20.61112 -11.29544 -11.26552 -11.23520
 Alpha  occ. eigenvalues --  -11.23414 -11.23229 -11.22271 -11.21837 -11.21551
 Alpha  occ. eigenvalues --  -11.20965  -1.48610  -1.20305  -1.11517  -1.08272
 Alpha  occ. eigenvalues --   -1.03457  -0.93636  -0.93423  -0.92456  -0.83802
 Alpha  occ. eigenvalues --   -0.78122  -0.77956  -0.73550  -0.67028  -0.64435
 Alpha  occ. eigenvalues --   -0.64036  -0.62457  -0.60753  -0.59396  -0.57914
 Alpha  occ. eigenvalues --   -0.57179  -0.55181  -0.54276  -0.53941  -0.53226
 Alpha  occ. eigenvalues --   -0.52450  -0.51643  -0.50244  -0.48176  -0.47883
 Alpha  occ. eigenvalues --   -0.47379  -0.47056  -0.45990  -0.42414  -0.40168
 Alpha virt. eigenvalues --    0.03597   0.04533   0.04820   0.05410   0.06295
 Alpha virt. eigenvalues --    0.06590   0.06688   0.07487   0.07763   0.08429
 Alpha virt. eigenvalues --    0.08897   0.09364   0.09465   0.09591   0.11397

  Beta  occ. eigenvalues --  -20.61372 -20.60676 -11.29668 -11.24794 -11.23485
  Beta  occ. eigenvalues --  -11.23411 -11.23370 -11.22265 -11.21843 -11.21555
  Beta  occ. eigenvalues --  -11.20967  -1.45439  -1.15128  -1.10274  -1.07867
  Beta  occ. eigenvalues --   -1.01217  -0.93620  -0.93408  -0.92096  -0.82026
  Beta  occ. eigenvalues --   -0.77347  -0.76459  -0.68466  -0.66433  -0.63503
  Beta  occ. eigenvalues --   -0.62731  -0.61063  -0.60426  -0.57938  -0.57189
  Beta  occ. eigenvalues --   -0.55641  -0.54555  -0.54209  -0.53846  -0.52320
  Beta  occ. eigenvalues --   -0.51240  -0.49735  -0.48530  -0.47736  -0.47194
  Beta  occ. eigenvalues --   -0.46849  -0.46505  -0.44731  -0.41002
  Beta virt. eigenvalues --    0.03587   0.04520   0.04825   0.05161   0.05668
  Beta virt. eigenvalues --    0.06326   0.06670   0.07025   0.07756   0.07787
  Beta virt. eigenvalues --    0.08442   0.08906   0.09368   0.09562   0.09647

 Mulliken atomic charges:
              1
     1  C   -0.315888
     2  H    0.083479
     3  H    0.049543
     4  H    0.087350
     5  C    0.650021
     6  H    0.070924
     7  C   -1.013644
     8  H    0.273998
     9  H    0.099989
    10  C   -0.542736
    11  H    0.063731
    12  H    0.098916
    13  C    1.020888
    14  H    0.051397
    15  C   -0.388573
    16  H    0.055550
    17  H    0.095327
    18  H    0.060763
    19  C   -0.663417
    20  H    0.068952
    21  H    0.092227
    22  H    0.069791
    23  C   -0.629215
    24  H    0.097036
    25  H    0.065733
    26  H    0.061310
    27  C    0.515174
    28  H    0.128262
    29  O   -0.061415
    30  O   -0.245472
 Sum of Mulliken atomic charges =   0.00000

 Dipole moment (field-independent basis, Debye):
    X=              0.9667    Y=              3.2187    Z=             -0.7221  Tot=              3.4375
 Quadrupole moment (field-independent basis, Debye-Ang):
   XX=            -69.7294   YY=            -78.4149   ZZ=            -71.7796
   XY=             -3.6856   XZ=              0.9000   YZ=              1.5435

    1 imaginary frequencies ignored.
 Normal termination of Gaussian 09 at Mon Feb 17 21:09:43 2014.
