 Gaussian 09, Revision C.01,
 Gaussian 09:  EM64L-G09RevC.01 23-Sep-2011

 -------------------------------
 #p cbs-qb3 opt=(TS,calcfc) freq
 -------------------------------

 (Enter /usr/caen/gaussian-09revc/g09/l101.exe)
 ------------------------------------
 TS_4_4c using cbs-qb3 to cal. energy
 ------------------------------------
 Charge =  0 Multiplicity = 2

 SCF Done:  E(UB3LYP) =  -504.818647132     A.U. after   22 cycles
 SCF Done:  E(UB3LYP) =  -504.818719933     A.U. after   15 cycles
 SCF Done:  E(UB3LYP) =  -504.818721163     A.U. after   12 cycles
 SCF Done:  E(UB3LYP) =  -504.818720944     A.U. after   10 cycles
 Optimization completed.
    -- Stationary point found.
 Normal termination of Gaussian 09 at Mon Feb 17 19:18:26 2014.

 ---------------------------------------------------------
 #P Geom=AllCheck Guess=TCheck SCRF=Check B3LYP/CBSB7 Freq
 ---------------------------------------------------------

 Structure from the checkpoint file:  TS_4_4c.chk
 ------------------------------------
 TS_4_4c using cbs-qb3 to cal. energy
 ------------------------------------
 Charge =  0 Multiplicity = 2

 SCF Done:  E(UB3LYP) =  -504.818720944     A.U. after    1 cycles

  Exact polarizability: 141.021  -7.020 115.132  -5.266   0.518  99.187
 Approx polarizability: 161.046  -9.233 177.130 -10.834   6.138 157.506

 ******    1 imaginary frequencies (negative Signs) ******

                     1                      2                      3
                     A                      A                      A
 Frequencies -- -2138.6028                36.9327                52.8988
 Red. masses --     1.1045                 2.8058                 3.1721
 Frc consts  --     2.9763                 0.0023                 0.0052
 IR Inten    --  1070.6163                 0.3307                 0.1810

                     4                      5                      6
                     A                      A                      A
 Frequencies --    63.7861               101.4147               120.3075
 Red. masses --     2.9982                 3.2203                 3.4484
 Frc consts  --     0.0072                 0.0195                 0.0294
 IR Inten    --     0.5362                 1.4889                 2.8869

                     7                      8                      9
                     A                      A                      A
 Frequencies --   199.3767               210.2180               220.4094
 Red. masses --     2.7958                 2.8347                 1.0408
 Frc consts  --     0.0655                 0.0738                 0.0298
 IR Inten    --     1.3576                 0.2925                 0.0142

                    10                     11                     12
                     A                      A                      A
 Frequencies --   229.8115               241.7093               252.8516
 Red. masses --     1.0630                 1.9612                 1.5223
 Frc consts  --     0.0331                 0.0675                 0.0573
 IR Inten    --     0.0324                 0.1886                 0.0578

                    13                     14                     15
                     A                      A                      A
 Frequencies --   259.1007               338.1944               364.4573
 Red. masses --     1.2514                 2.5124                 2.5309
 Frc consts  --     0.0495                 0.1693                 0.1981
 IR Inten    --     0.0918                 0.1325                 3.4055

                    16                     17                     18
                     A                      A                      A
 Frequencies --   375.0471               415.5879               423.0298
 Red. masses --     2.5294                 2.4451                 2.2927
 Frc consts  --     0.2096                 0.2488                 0.2417
 IR Inten    --     0.0212                 0.5065                 0.2825

                    19                     20                     21
                     A                      A                      A
 Frequencies --   453.8212               548.0985               616.5252
 Red. masses --     2.2016                 2.5268                 2.8814
 Frc consts  --     0.2672                 0.4472                 0.6453
 IR Inten    --     0.0798                10.1930                 1.3406

                    22                     23                     24
                     A                      A                      A
 Frequencies --   734.7301               809.1351               827.6088
 Red. masses --     3.1521                 2.7837                 4.2206
 Frc consts  --     1.0025                 1.0738                 1.7032
 IR Inten    --     1.0228                 1.2585                 5.6520

                    25                     26                     27
                     A                      A                      A
 Frequencies --   843.4360               874.7960               899.1112
 Red. masses --     2.7027                 2.0602                 2.7217
 Frc consts  --     1.1328                 0.9289                 1.2963
 IR Inten    --     4.7017                 9.3054                11.2595

                    28                     29                     30
                     A                      A                      A
 Frequencies --   931.9634               935.3743               936.9867
 Red. masses --     1.4535                 1.5545                 1.2313
 Frc consts  --     0.7438                 0.8013                 0.6369
 IR Inten    --     3.2937                 1.2759                 3.1351

                    31                     32                     33
                     A                      A                      A
 Frequencies --   949.6671               964.7337               966.1398
 Red. masses --     1.8878                 1.4695                 1.4741
 Frc consts  --     1.0031                 0.8058                 0.8107
 IR Inten    --    17.7230                 0.7108                 1.0644

                    34                     35                     36
                     A                      A                      A
 Frequencies --   982.6967              1006.0993              1039.8357
 Red. masses --     2.0823                 2.5464                 2.0056
 Frc consts  --     1.1847                 1.5187                 1.2777
 IR Inten    --    18.7985                 2.0322                10.7203

                    37                     38                     39
                     A                      A                      A
 Frequencies --  1103.1739              1129.0741              1133.2560
 Red. masses --     2.0695                 1.2536                 2.0383
 Frc consts  --     1.4839                 0.9416                 1.5423
 IR Inten    --     1.3266                 8.6099                14.1951

                    40                     41                     42
                     A                      A                      A
 Frequencies --  1153.6210              1180.8757              1188.1878
 Red. masses --     1.8959                 1.7856                 1.8249
 Frc consts  --     1.4866                 1.4670                 1.5179
 IR Inten    --     0.4597                 1.9183                21.9645

                    43                     44                     45
                     A                      A                      A
 Frequencies --  1197.7887              1251.8110              1266.6786
 Red. masses --     1.9594                 1.3279                 1.4003
 Frc consts  --     1.6562                 1.2260                 1.3238
 IR Inten    --     6.6100                 0.5882                 1.0317

                    46                     47                     48
                     A                      A                      A
 Frequencies --  1305.2580              1323.5893              1347.6279
 Red. masses --     1.3290                 1.3159                 1.2836
 Frc consts  --     1.3341                 1.3583                 1.3735
 IR Inten    --     3.6991                 0.8301                 2.8192

                    49                     50                     51
                     A                      A                      A
 Frequencies --  1362.8534              1375.6242              1392.4585
 Red. masses --     1.3042                 1.3444                 1.3327
 Frc consts  --     1.4272                 1.4989                 1.5224
 IR Inten    --     0.9728                 2.3522                 2.2024

                    52                     53                     54
                     A                      A                      A
 Frequencies --  1399.2413              1404.3807              1406.0133
 Red. masses --     1.2831                 1.3361                 1.3563
 Frc consts  --     1.4801                 1.5526                 1.5797
 IR Inten    --     4.3427                10.1906                 9.8045

                    55                     56                     57
                     A                      A                      A
 Frequencies --  1421.7225              1423.9028              1472.5139
 Red. masses --     1.2651                 1.2363                 1.0870
 Frc consts  --     1.5066                 1.4769                 1.3886
 IR Inten    --     2.1248                 4.2958                 2.7528

                    58                     59                     60
                     A                      A                      A
 Frequencies --  1488.7013              1490.9272              1492.0397
 Red. masses --     1.0475                 1.0458                 1.0426
 Frc consts  --     1.3678                 1.3696                 1.3675
 IR Inten    --     1.4889                 0.8048                 3.8191

                    61                     62                     63
                     A                      A                      A
 Frequencies --  1497.9495              1503.6810              1507.4409
 Red. masses --     1.0524                 1.0512                 1.0579
 Frc consts  --     1.3914                 1.4004                 1.4163
 IR Inten    --     4.1515                 7.3448                 3.0763

                    64                     65                     66
                     A                      A                      A
 Frequencies --  1511.4638              1513.6481              1708.6421
 Red. masses --     1.0557                 1.0453                 1.0381
 Frc consts  --     1.4210                 1.4110                 1.7856
 IR Inten    --     8.6461                16.4467                21.0360

                    67                     68                     69
                     A                      A                      A
 Frequencies --  3004.6706              3012.4132              3015.2143
 Red. masses --     1.0655                 1.0375                 1.0479
 Frc consts  --     5.6678                 5.5473                 5.6132
 IR Inten    --     9.9305                29.5685                17.3945

                    70                     71                     72
                     A                      A                      A
 Frequencies --  3018.5024              3019.4841              3024.7635
 Red. masses --     1.0479                 1.0497                 1.0549
 Frc consts  --     5.6252                 5.6387                 5.6864
 IR Inten    --    18.8159                16.6032                19.5875

                    73                     74                     75
                     A                      A                      A
 Frequencies --  3028.8285              3044.8031              3065.5414
 Red. masses --     1.0719                 1.0853                 1.0958
 Frc consts  --     5.7938                 5.9284                 6.0672
 IR Inten    --    15.0693                 6.1595                13.7439

                    76                     77                     78
                     A                      A                      A
 Frequencies --  3072.5220              3081.0382              3081.1225
 Red. masses --     1.0987                 1.0999                 1.0992
 Frc consts  --     6.1113                 6.1515                 6.1480
 IR Inten    --    13.2964                34.7949                33.4764

                    79                     80                     81
                     A                      A                      A
 Frequencies --  3085.5969              3086.8097              3088.8842
 Red. masses --     1.0953                 1.1016                 1.1009
 Frc consts  --     6.1444                 6.1846                 6.1885
 IR Inten    --    12.3840                24.2335                70.2604

                    82                     83                     84
                     A                      A                      A
 Frequencies --  3090.7156              3092.4483              3096.4124
 Red. masses --     1.0974                 1.0951                 1.1020
 Frc consts  --     6.1764                 6.1705                 6.2253
 IR Inten    --    35.0085                58.0602                29.3365

 - Thermochemistry -
 -------------------
 Temperature   298.150 Kelvin.  Pressure   1.00000 Atm.
 Atom     1 has atomic number  6 and mass  12.00000

 Molecular mass:   159.13850 amu.
 Principal axes and moments of inertia in atomic units:
                           1         2         3
     Eigenvalues --   973.353433490.948673936.95025
           X            1.00000  -0.00150  -0.00021
           Y            0.00149   0.99863  -0.05239
           Z            0.00029   0.05239   0.99863
 This molecule is an asymmetric top.
 Rotational symmetry number  1.
 Warning -- assumption of classical behavior for rotation
           may cause significant error
 Rotational temperatures (Kelvin)      0.08898     0.02481     0.02200
 Rotational constants (GHZ):           1.85415     0.51698     0.45841
    1 imaginary frequencies ignored.
 Zero-point vibrational energy     688988.1 (Joules/Mol)
                                  164.67210 (Kcal/Mol)
 Warning -- explicit consideration of  20 degrees of freedom as
           vibrations may cause significant error
 Vibrational temperatures:     53.14    76.11    91.77   145.91   173.10
          (Kelvin)            286.86   302.46   317.12   330.65   347.77
                              363.80   372.79   486.59   524.37   539.61
                              597.94   608.64   652.95   788.59   887.04
                             1057.11  1164.16  1190.74  1213.51  1258.63
                             1293.62  1340.89  1345.79  1348.11  1366.36
                             1388.03  1390.06  1413.88  1447.55  1496.09
                             1587.22  1624.48  1630.50  1659.80  1699.01
                             1709.54  1723.35  1801.07  1822.47  1877.97
                             1904.35  1938.93  1960.84  1979.21  2003.43
                             2013.19  2020.59  2022.94  2045.54  2048.68
                             2118.62  2141.91  2145.11  2146.71  2155.21
                             2163.46  2168.87  2174.66  2177.80  2458.35
                             4323.05  4334.19  4338.22  4342.95  4344.36
                             4351.95  4357.80  4380.79  4410.62  4420.67
                             4432.92  4433.04  4439.48  4441.23  4444.21
                             4446.84  4449.34  4455.04

 Zero-point correction=                           0.262422 (Hartree/Particle)
 Thermal correction to Energy=                    0.276135
 Thermal correction to Enthalpy=                  0.277079
 Thermal correction to Gibbs Free Energy=         0.221308
 Sum of electronic and zero-point Energies=           -504.556299
 Sum of electronic and thermal Energies=              -504.542586
 Sum of electronic and thermal Enthalpies=            -504.541642
 Sum of electronic and thermal Free Energies=         -504.597413

                     E (Thermal)             CV                S
                      KCal/Mol        Cal/Mol-Kelvin    Cal/Mol-Kelvin
 Total                  173.277             50.682            117.380
 Electronic               0.000              0.000              1.377
 Translational            0.889              2.981             41.103
 Rotational               0.889              2.981             30.971
 Vibrational            171.500             44.720             43.929
 Vibration     1          0.594              1.982              5.417
 Vibration     2          0.596              1.976              4.706
 Vibration     3          0.597              1.972              4.336
 Vibration     4          0.604              1.948              3.427
 Vibration     5          0.609              1.932              3.095
 Vibration     6          0.638              1.841              2.139
 Vibration     7          0.642              1.825              2.042
 Vibration     8          0.647              1.810              1.956
 Vibration     9          0.652              1.795              1.880
 Vibration    10          0.658              1.776              1.790
 Vibration    11          0.664              1.758              1.711
 Vibration    12          0.668              1.747              1.668
 Vibration    13          0.719              1.599              1.221
 Vibration    14          0.738              1.545              1.103
 Vibration    15          0.746              1.523              1.059
 Vibration    16          0.779              1.436              0.907
 Vibration    17          0.785              1.420              0.882
 Vibration    18          0.812              1.352              0.784
 Vibration    19          0.903              1.144              0.548
 Vibration    20          0.976              0.997              0.422

 Optimization completed.
    -- Stationary point found.
 Normal termination of Gaussian 09 at Mon Feb 17 19:32:29 2014.

 -----------------------------------------------------------
 #P Geom=AllCheck Guess=TCheck SCRF=Check CCSD(T)/6-31+G(d')
 -----------------------------------------------------------

 Structure from the checkpoint file:  TS_4_4c.chk
 ------------------------------------
 TS_4_4c using cbs-qb3 to cal. energy
 ------------------------------------
 Charge =  0 Multiplicity = 2

 SCF Done:  E(UHF) =  -501.397312910     A.U. after   24 cycles
 E2 =    -0.1584190483D+01 EUMP2 =    -0.50298150339311D+03
 CCSD(T)
 CCSD(T)= -0.50315871418D+03
 .0733497\MP4SDQ=-503.0971141\CCSD=-503.1012561\CCSD(T)=-503.1587142\S2
 Normal termination of Gaussian 09 at Tue Feb 18 09:22:52 2014.

 -----------------------------------------------------
 #P Geom=AllCheck Guess=TCheck SCRF=Check MP4SDQ/CBSB4
 -----------------------------------------------------

 Structure from the checkpoint file:  TS_4_4c.chk
 ------------------------------------
 TS_4_4c using cbs-qb3 to cal. energy
 ------------------------------------
 Charge =  0 Multiplicity = 2

 SCF Done:  E(UHF) =  -501.426736943     A.U. after   21 cycles
 E2 =    -0.1711267908D+01 EUMP2 =    -0.50313800485169D+03
 Normal termination of Gaussian 09 at Tue Feb 18 09:59:52 2014.

 ----------------------------------------------------------------------
 #P Geom=AllCheck Guess=TCheck SCRF=Check MP2/CBSB3 CBSExtrap=(NMin=10,
 MinPop)
 ----------------------------------------------------------------------

 Structure from the checkpoint file:  TS_4_4c.chk
 ------------------------------------
 TS_4_4c using cbs-qb3 to cal. energy
 ------------------------------------
 Charge =  0 Multiplicity = 2

                         Standard orientation:
 ---------------------------------------------------------------------
 Center     Atomic      Atomic             Coordinates (Angstroms)
 Number     Number       Type             X           Y           Z
 ---------------------------------------------------------------------
      1          6           0        3.784601   -0.274475    0.885883
      2          1           0        3.653553   -1.269551    1.320269
      3          1           0        3.842919    0.445341    1.710246
      4          1           0        4.746830   -0.260117    0.366144
      5          6           0        2.635292    0.072221   -0.070045
      6          1           0        2.609721   -0.686882   -0.860040
      7          6           0        1.286328   -0.001550    0.668521
      8          1           0        1.240255   -0.928625    1.248414
      9          1           0        1.212403    0.827319    1.385035
     10          6           0       -1.264402   -0.128960    0.528911
     11          1           0       -1.214349    0.053027    1.604557
     12          1           0       -1.125714   -1.463665    0.331991
     13          6           0       -2.545431    0.329289   -0.129790
     14          1           0       -2.481586    0.066199   -1.192218
     15          6           0       -3.768370   -0.377758    0.473056
     16          1           0       -3.859019   -0.163003    1.543170
     17          1           0       -4.688919   -0.043426   -0.012865
     18          1           0       -3.696509   -1.461187    0.350091
     19          6           0        2.870858    1.440757   -0.725564
     20          1           0        2.884346    2.237387    0.027048
     21          1           0        3.832272    1.461505   -1.246259
     22          1           0        2.100569    1.687231   -1.461101
     23          6           0       -2.691250    1.863424   -0.025057
     24          1           0       -3.591627    2.194438   -0.550493
     25          1           0       -2.776730    2.176539    1.020216
     26          1           0       -1.838400    2.385674   -0.466099
     27          6           0        0.058113    0.032999   -0.240772
     28          1           0        0.059660    0.919783   -0.882793
     29          8           0        0.029327   -1.072924   -1.174473
     30          8           0       -0.417342   -2.166285   -0.378798
 ---------------------------------------------------------------------

 SCF Done:  E(UHF) =  -501.564716411     A.U. after   23 cycles
 E2 =    -0.2013987072D+01 EUMP2 =    -0.50357870348248D+03
 E2(CBS)=      -2.210916 CBS-Int=       0.065993 OIii=      17.312291

 The electronic state is 2-A.
 Alpha  occ. eigenvalues --  -20.63571 -20.61106 -11.29597 -11.26491 -11.24223
 Alpha  occ. eigenvalues --  -11.22709 -11.22583 -11.22396 -11.22113 -11.21264
 Alpha  occ. eigenvalues --  -11.21024  -1.48556  -1.20206  -1.11605  -1.08753
 Alpha  occ. eigenvalues --   -1.01772  -0.94346  -0.93875  -0.92973  -0.83123
 Alpha  occ. eigenvalues --   -0.78118  -0.77191  -0.73705  -0.67961  -0.65253
 Alpha  occ. eigenvalues --   -0.61899  -0.61547  -0.60795  -0.59598  -0.59095
 Alpha  occ. eigenvalues --   -0.56951  -0.54744  -0.54397  -0.54017  -0.53344
 Alpha  occ. eigenvalues --   -0.52200  -0.51172  -0.50577  -0.49754  -0.47909
 Alpha  occ. eigenvalues --   -0.46918  -0.46372  -0.45514  -0.42488  -0.40139
 Alpha virt. eigenvalues --    0.03626   0.04535   0.04871   0.05412   0.06279
 Alpha virt. eigenvalues --    0.06691   0.06852   0.07371   0.08004   0.08347
 Alpha virt. eigenvalues --    0.08680   0.09463   0.09516   0.09608   0.11349

  Beta  occ. eigenvalues --  -20.61364 -20.60652 -11.29721 -11.24718 -11.24367
  Beta  occ. eigenvalues --  -11.22584 -11.22562 -11.22390 -11.22070 -11.21264
  Beta  occ. eigenvalues --  -11.21024  -1.45397  -1.15037  -1.09823  -1.08502
  Beta  occ. eigenvalues --   -1.00565  -0.93903  -0.93006  -0.92039  -0.82577
  Beta  occ. eigenvalues --   -0.76755  -0.76300  -0.68513  -0.67052  -0.63616
  Beta  occ. eigenvalues --   -0.61764  -0.60569  -0.59794  -0.59004  -0.58104
  Beta  occ. eigenvalues --   -0.55523  -0.54569  -0.53631  -0.53445  -0.52138
  Beta  occ. eigenvalues --   -0.50985  -0.50150  -0.49297  -0.47719  -0.46865
  Beta  occ. eigenvalues --   -0.46565  -0.46128  -0.44439  -0.41108
  Beta virt. eigenvalues --    0.03616   0.04507   0.04768   0.05104   0.05938
  Beta virt. eigenvalues --    0.06386   0.06828   0.07034   0.07538   0.08032
  Beta virt. eigenvalues --    0.08363   0.08699   0.09473   0.09578   0.09663

 Mulliken atomic charges:
              1
     1  C   -0.387310
     2  H    0.061114
     3  H    0.050535
     4  H    0.100937
     5  C    1.063848
     6  H    0.081958
     7  C   -1.058526
     8  H    0.118085
     9  H    0.061212
    10  C   -1.076746
    11  H    0.138245
    12  H    0.242959
    13  C    1.035428
    14  H    0.076158
    15  C   -0.327675
    16  H    0.052516
    17  H    0.101159
    18  H    0.070962
    19  C   -0.620417
    20  H    0.066902
    21  H    0.089464
    22  H    0.050053
    23  C   -0.647399
    24  H    0.089890
    25  H    0.069376
    26  H    0.057082
    27  C    0.562012
    28  H    0.164109
    29  O   -0.064114
    30  O   -0.221817
 Sum of Mulliken atomic charges =   0.00000

 Dipole moment (field-independent basis, Debye):
    X=             -0.8191    Y=              2.8285    Z=              1.6787  Tot=              3.3896
 Quadrupole moment (field-independent basis, Debye-Ang):
   XX=            -67.8615   YY=            -77.6166   ZZ=            -72.9510
   XY=             -1.0592   XZ=             -0.7176   YZ=             -2.9109

    1 imaginary frequencies ignored.
 Normal termination of Gaussian 09 at Tue Feb 18 11:44:53 2014.
