 Gaussian 09, Revision C.01,
 Gaussian 09:  EM64L-G09RevC.01 23-Sep-2011

 -------------------------------
 #p cbs-qb3 opt=(TS,calcfc) freq
 -------------------------------

 (Enter /usr/caen/gaussian-09revc/g09/l101.exe)
 ------------------------------------
 TS_4_4b using cbs-qb3 to cal. energy
 ------------------------------------
 Charge =  0 Multiplicity = 2

 SCF Done:  E(UB3LYP) =  -504.841244806     A.U. after   18 cycles
 SCF Done:  E(UB3LYP) =  -504.841278856     A.U. after   12 cycles
 Optimization completed.
    -- Stationary point found.
 Normal termination of Gaussian 09 at Thu Feb 20 15:08:36 2014.

 ---------------------------------------------------------
 #P Geom=AllCheck Guess=TCheck SCRF=Check B3LYP/CBSB7 Freq
 ---------------------------------------------------------

 Structure from the checkpoint file:  TS_4_4b.chk
 ------------------------------------
 TS_4_4b using cbs-qb3 to cal. energy
 ------------------------------------
 Charge =  0 Multiplicity = 2

 SCF Done:  E(UB3LYP) =  -504.841278856     A.U. after    1 cycles

  Exact polarizability: 152.761  -0.927 105.782  -7.729   1.860 104.801
 Approx polarizability: 181.359   0.827 152.986 -13.216   8.441 170.342

 ******    1 imaginary frequencies (negative Signs) ******

                     1                      2                      3
                     A                      A                      A
 Frequencies -- -1682.0211                26.7106                49.8725
 Red. masses --     1.1163                 2.8313                 2.8256
 Frc consts  --     1.8608                 0.0012                 0.0041
 IR Inten    --   652.1111                 0.6345                 0.0643

                     4                      5                      6
                     A                      A                      A
 Frequencies --    92.2613               106.7611               139.3785
 Red. masses --     3.0055                 3.2143                 2.9347
 Frc consts  --     0.0151                 0.0216                 0.0336
 IR Inten    --     1.2880                 1.2595                 0.7132

                     7                      8                      9
                     A                      A                      A
 Frequencies --   197.7605               209.4141               220.2237
 Red. masses --     1.0303                 1.1798                 1.0683
 Frc consts  --     0.0237                 0.0305                 0.0305
 IR Inten    --     0.0167                 0.2381                 0.0621

                    10                     11                     12
                     A                      A                      A
 Frequencies --   233.8508               251.7971               252.5825
 Red. masses --     1.7700                 2.8593                 1.4845
 Frc consts  --     0.0570                 0.1068                 0.0558
 IR Inten    --     0.1728                 1.5463                 0.1669

                    13                     14                     15
                     A                      A                      A
 Frequencies --   280.2989               327.0784               373.8815
 Red. masses --     4.0546                 2.3355                 2.1508
 Frc consts  --     0.1877                 0.1472                 0.1771
 IR Inten    --     0.0984                 0.4130                 0.7916

                    16                     17                     18
                     A                      A                      A
 Frequencies --   377.1933               416.8799               433.1056
 Red. masses --     2.0137                 2.0997                 2.7358
 Frc consts  --     0.1688                 0.2150                 0.3024
 IR Inten    --     0.4561                 0.0930                 0.9346

                    19                     20                     21
                     A                      A                      A
 Frequencies --   458.7811               500.3791               545.5925
 Red. masses --     3.1619                 3.2581                 3.3260
 Frc consts  --     0.3921                 0.4806                 0.5833
 IR Inten    --     0.2425                 5.5843                 0.6861

                    22                     23                     24
                     A                      A                      A
 Frequencies --   634.8690               797.3194               820.5297
 Red. masses --     3.6602                 2.6462                 2.4158
 Frc consts  --     0.8692                 0.9911                 0.9583
 IR Inten    --     6.5728                 2.8445                 3.0654

                    25                     26                     27
                     A                      A                      A
 Frequencies --   846.4055               865.8160               931.4832
 Red. masses --     2.4156                 1.8426                 1.2109
 Frc consts  --     1.0196                 0.8138                 0.6190
 IR Inten    --     8.0554                 0.9830                 2.0048

                    28                     29                     30
                     A                      A                      A
 Frequencies --   940.6848               952.3290               965.9276
 Red. masses --     1.3400                 1.8105                 1.4282
 Frc consts  --     0.6986                 0.9674                 0.7851
 IR Inten    --     2.1539                 4.1738                 0.2469

                    31                     32                     33
                     A                      A                      A
 Frequencies --   975.4554               979.6983               991.4297
 Red. masses --     1.7945                 1.5919                 4.6251
 Frc consts  --     1.0060                 0.9002                 2.6785
 IR Inten    --     2.5975                 2.2618                19.3760

                    34                     35                     36
                     A                      A                      A
 Frequencies --  1000.0747              1013.8462              1055.1970
 Red. masses --     1.9529                 3.4207                 1.8801
 Frc consts  --     1.1508                 2.0716                 1.2334
 IR Inten    --     3.0389                 1.9847                 2.4428

                    37                     38                     39
                     A                      A                      A
 Frequencies --  1114.9366              1130.0092              1167.9426
 Red. masses --     1.5909                 1.9228                 1.6351
 Frc consts  --     1.1652                 1.4466                 1.3142
 IR Inten    --    18.1610                 5.0105                13.0590

                    40                     41                     42
                     A                      A                      A
 Frequencies --  1174.8881              1188.8353              1196.4990
 Red. masses --     1.7213                 1.7423                 1.8730
 Frc consts  --     1.3999                 1.4508                 1.5798
 IR Inten    --     9.6994                 6.8165                 4.5990

                    43                     44                     45
                     A                      A                      A
 Frequencies --  1244.8532              1265.2135              1274.8633
 Red. masses --     1.8046                 1.8023                 1.5618
 Frc consts  --     1.6477                 1.6999                 1.4956
 IR Inten    --     1.4438                36.0072                 1.2475

                    46                     47                     48
                     A                      A                      A
 Frequencies --  1294.1843              1336.5568              1358.1270
 Red. masses --     1.4486                 1.3536                 1.3242
 Frc consts  --     1.4295                 1.4246                 1.4391
 IR Inten    --     1.7015                 6.5216                10.2584

                    49                     50                     51
                     A                      A                      A
 Frequencies --  1366.5900              1380.7743              1396.9684
 Red. masses --     1.2502                 1.2793                 1.4499
 Frc consts  --     1.3757                 1.4370                 1.6671
 IR Inten    --     2.1525                 2.9249                 4.9622

                    52                     53                     54
                     A                      A                      A
 Frequencies --  1401.4791              1404.3937              1415.8940
 Red. masses --     1.3316                 1.2633                 1.2188
 Frc consts  --     1.5409                 1.4680                 1.4396
 IR Inten    --    10.4107                 8.4467                 0.3667

                    55                     56                     57
                     A                      A                      A
 Frequencies --  1424.0226              1463.3421              1472.8925
 Red. masses --     1.2414                 1.0861                 1.0784
 Frc consts  --     1.4832                 1.3703                 1.3784
 IR Inten    --     6.2878                 0.0967                 3.0889

                    58                     59                     60
                     A                      A                      A
 Frequencies --  1479.8246              1482.8933              1490.0614
 Red. masses --     1.0616                 1.0504                 1.0468
 Frc consts  --     1.3698                 1.3609                 1.3694
 IR Inten    --     0.7882                 5.2388                 2.1603

                    61                     62                     63
                     A                      A                      A
 Frequencies --  1493.9837              1496.1169              1500.4275
 Red. masses --     1.0529                 1.0515                 1.0584
 Frc consts  --     1.3846                 1.3867                 1.4038
 IR Inten    --     2.2433                 3.7544                 6.0262

                    64                     65                     66
                     A                      A                      A
 Frequencies --  1506.4934              1514.1254              1582.4229
 Red. masses --     1.0574                 1.0452                 1.0584
 Frc consts  --     1.4139                 1.4119                 1.5615
 IR Inten    --     3.0040                15.8496                15.5412

                    67                     68                     69
                     A                      A                      A
 Frequencies --  2978.8839              2986.2977              2995.8804
 Red. masses --     1.0525                 1.0521                 1.0633
 Frc consts  --     5.5026                 5.5283                 5.6229
 IR Inten    --    22.7197                33.5011                26.0919

                    70                     71                     72
                     A                      A                      A
 Frequencies --  3010.0669              3012.0596              3015.8070
 Red. masses --     1.0535                 1.0412                 1.0490
 Frc consts  --     5.6241                 5.5657                 5.6215
 IR Inten    --    12.7284                33.7797                24.4145

                    73                     74                     75
                     A                      A                      A
 Frequencies --  3030.5377              3034.6832              3052.3046
 Red. masses --     1.0790                 1.0825                 1.0992
 Frc consts  --     5.8385                 5.8737                 6.0340
 IR Inten    --    12.4552                 5.3270                11.4029

                    76                     77                     78
                     A                      A                      A
 Frequencies --  3059.6346              3062.1493              3067.9247
 Red. masses --     1.0801                 1.0810                 1.0972
 Frc consts  --     5.9574                 5.9723                 6.0846
 IR Inten    --    10.9718                26.1723                30.9429

                    79                     80                     81
                     A                      A                      A
 Frequencies --  3072.1115              3081.3613              3086.1258
 Red. masses --     1.0985                 1.0984                 1.1012
 Frc consts  --     6.1086                 6.1449                 6.1796
 IR Inten    --    19.7897                65.9010                48.3562

                    82                     83                     84
                     A                      A                      A
 Frequencies --  3092.6026              3094.6193              3098.3183
 Red. masses --     1.1004                 1.1021                 1.1023
 Frc consts  --     6.2007                 6.2185                 6.2347
 IR Inten    --    50.8632                15.5028                32.6665

 - Thermochemistry -
 -------------------
 Temperature   298.150 Kelvin.  Pressure   1.00000 Atm.
 Atom     1 has atomic number  6 and mass  12.00000

 Molecular mass:   159.13850 amu.
 Principal axes and moments of inertia in atomic units:
                           1         2         3
     Eigenvalues --   844.028633736.755433769.26843
           X            0.99999  -0.00368  -0.00219
           Y            0.00217   0.87549  -0.48323
           Z            0.00370   0.48322   0.87549
 This molecule is an asymmetric top.
 Rotational symmetry number  1.
 Warning -- assumption of classical behavior for rotation
           may cause significant error
 Rotational temperatures (Kelvin)      0.10262     0.02318     0.02298
 Rotational constants (GHZ):           2.13825     0.48297     0.47880
    1 imaginary frequencies ignored.
 Zero-point vibrational energy     688545.7 (Joules/Mol)
                                  164.56637 (Kcal/Mol)
 Warning -- explicit consideration of  20 degrees of freedom as
           vibrations may cause significant error
 Vibrational temperatures:     38.43    71.76   132.74   153.61   200.53
          (Kelvin)            284.53   301.30   316.85   336.46   362.28
                              363.41   403.29   470.59   537.93   542.70
                              599.80   623.14   660.08   719.93   784.98
                              913.43  1147.16  1180.56  1217.79  1245.71
                             1340.19  1353.43  1370.19  1389.75  1403.46
                             1409.57  1426.44  1438.88  1458.70  1518.19
                             1604.14  1625.83  1680.41  1690.40  1710.47
                             1721.49  1791.06  1820.36  1834.24  1862.04
                             1923.00  1954.04  1966.22  1986.62  2009.92
                             2016.41  2020.61  2037.15  2048.85  2105.42
                             2119.16  2129.13  2133.55  2143.86  2149.51
                             2152.58  2158.78  2167.51  2178.49  2276.75
                             4285.94  4296.61  4310.40  4330.81  4333.68
                             4339.07  4360.26  4366.23  4391.58  4402.13
                             4405.74  4414.05  4420.08  4433.39  4440.24
                             4449.56  4452.46  4457.78

 Zero-point correction=                           0.262253 (Hartree/Particle)
 Thermal correction to Energy=                    0.275916
 Thermal correction to Enthalpy=                  0.276860
 Thermal correction to Gibbs Free Energy=         0.221305
 Sum of electronic and zero-point Energies=           -504.579026
 Sum of electronic and thermal Energies=              -504.565363
 Sum of electronic and thermal Enthalpies=            -504.564418
 Sum of electronic and thermal Free Energies=         -504.619974

                     E (Thermal)             CV                S
                      KCal/Mol        Cal/Mol-Kelvin    Cal/Mol-Kelvin
 Total                  173.140             50.713            116.926
 Electronic               0.000              0.000              1.377
 Translational            0.889              2.981             41.103
 Rotational               0.889              2.981             30.853
 Vibrational            171.363             44.752             43.592
 Vibration     1          0.593              1.984              6.060
 Vibration     2          0.595              1.978              4.822
 Vibration     3          0.602              1.955              3.612
 Vibration     4          0.606              1.944              3.327
 Vibration     5          0.615              1.914              2.812
 Vibration     6          0.637              1.843              2.154
 Vibration     7          0.642              1.826              2.049
 Vibration     8          0.647              1.810              1.957
 Vibration     9          0.654              1.789              1.849
 Vibration    10          0.664              1.760              1.718
 Vibration    11          0.664              1.758              1.712
 Vibration    12          0.680              1.710              1.532
 Vibration    13          0.711              1.621              1.274
 Vibration    14          0.745              1.526              1.064
 Vibration    15          0.748              1.519              1.050
 Vibration    16          0.780              1.434              0.903
 Vibration    17          0.794              1.398              0.849
 Vibration    18          0.817              1.341              0.770
 Vibration    19          0.856              1.249              0.657
 Vibration    20          0.901              1.149              0.553

 Optimization completed.
    -- Stationary point found.
 Normal termination of Gaussian 09 at Thu Feb 20 15:22:22 2014.

 -----------------------------------------------------------
 #P Geom=AllCheck Guess=TCheck SCRF=Check CCSD(T)/6-31+G(d')
 -----------------------------------------------------------

 Structure from the checkpoint file:  TS_4_4b.chk
 ------------------------------------
 TS_4_4b using cbs-qb3 to cal. energy
 ------------------------------------
 Charge =  0 Multiplicity = 2

 SCF Done:  E(UHF) =  -501.416633947     A.U. after   23 cycles
 E2 =    -0.1587970147D+01 EUMP2 =    -0.50300460409383D+03
 CCSD(T)
 CCSD(T)= -0.50317960087D+03
 4SDQ=-503.1186755\CCSD=-503.1219922\CCSD(T)=-503.1796009\S2=0.800902\S
 Normal termination of Gaussian 09 at Fri Feb 21 04:49:49 2014.

 -----------------------------------------------------
 #P Geom=AllCheck Guess=TCheck SCRF=Check MP4SDQ/CBSB4
 -----------------------------------------------------

 Structure from the checkpoint file:  TS_4_4b.chk
 ------------------------------------
 TS_4_4b using cbs-qb3 to cal. energy
 ------------------------------------
 Charge =  0 Multiplicity = 2

 SCF Done:  E(UHF) =  -501.446202907     A.U. after   20 cycles
 E2 =    -0.1714763427D+01 EUMP2 =    -0.50316096633356D+03
 Normal termination of Gaussian 09 at Fri Feb 21 05:20:27 2014.

 ----------------------------------------------------------------------
 #P Geom=AllCheck Guess=TCheck SCRF=Check MP2/CBSB3 CBSExtrap=(NMin=10,
 MinPop)
 ----------------------------------------------------------------------

 Structure from the checkpoint file:  TS_4_4b.chk
 ------------------------------------
 TS_4_4b using cbs-qb3 to cal. energy
 ------------------------------------
 Charge =  0 Multiplicity = 2

                         Standard orientation:
 ---------------------------------------------------------------------
 Center     Atomic      Atomic             Coordinates (Angstroms)
 Number     Number       Type             X           Y           Z
 ---------------------------------------------------------------------
      1          6           0       -3.906258   -0.925810   -0.065983
      2          1           0       -3.745232   -1.907089    0.389718
      3          1           0       -4.101897   -1.081008   -1.133080
      4          1           0       -4.809250   -0.496039    0.376586
      5          6           0       -2.696413   -0.005391    0.144843
      6          1           0       -2.533288    0.101354    1.222605
      7          6           0       -1.430242   -0.653664   -0.448387
      8          1           0       -1.359307   -1.690486   -0.100329
      9          1           0       -1.518092   -0.695681   -1.541345
     10          6           0        1.114726   -0.612420   -0.781029
     11          1           0        1.041905   -0.439426   -1.863412
     12          1           0        1.050299   -1.691606   -0.613733
     13          6           0        2.437306   -0.076616   -0.247129
     14          1           0        1.968803    0.388274    0.932092
     15          6           0        3.484788   -1.116367    0.088524
     16          1           0        3.856529   -1.601500   -0.826327
     17          1           0        4.345880   -0.669951    0.592775
     18          1           0        3.078403   -1.900355    0.732506
     19          6           0       -2.968640    1.388621   -0.437416
     20          1           0       -3.112152    1.338770   -1.523001
     21          1           0       -3.876083    1.818179   -0.003867
     22          1           0       -2.152083    2.086496   -0.236739
     23          6           0        2.958884    1.171479   -0.930757
     24          1           0        3.782361    1.621479   -0.369801
     25          1           0        3.338176    0.931164   -1.934434
     26          1           0        2.178420    1.927772   -1.046639
     27          6           0       -0.116975    0.041674   -0.104809
     28          1           0       -0.150237    1.108183   -0.350731
     29          8           0        0.058449   -0.074673    1.312710
     30          8           0        1.123275    0.772478    1.686042
 ---------------------------------------------------------------------

 SCF Done:  E(UHF) =  -501.583761849     A.U. after   16 cycles
 E2 =    -0.2017757573D+01 EUMP2 =    -0.50360151942155D+03
 E2(CBS)=      -2.215831 CBS-Int=       0.066104 OIii=      17.334366

 The electronic state is 2-A.
 Alpha  occ. eigenvalues --  -20.62174 -20.60632 -11.28513 -11.26511 -11.23333
 Alpha  occ. eigenvalues --  -11.22842 -11.22798 -11.22409 -11.22347 -11.20930
 Alpha  occ. eigenvalues --  -11.20919  -1.47906  -1.20462  -1.12171  -1.08337
 Alpha  occ. eigenvalues --   -1.00451  -0.95128  -0.93448  -0.92764  -0.82773
 Alpha  occ. eigenvalues --   -0.80266  -0.76466  -0.72011  -0.66370  -0.63938
 Alpha  occ. eigenvalues --   -0.61696  -0.61418  -0.61023  -0.60384  -0.59640
 Alpha  occ. eigenvalues --   -0.57922  -0.55773  -0.55032  -0.53426  -0.52850
 Alpha  occ. eigenvalues --   -0.52224  -0.51323  -0.50331  -0.49866  -0.48775
 Alpha  occ. eigenvalues --   -0.46234  -0.45612  -0.45113  -0.43551  -0.36474
 Alpha virt. eigenvalues --    0.03663   0.04549   0.04917   0.05554   0.06258
 Alpha virt. eigenvalues --    0.06621   0.06701   0.07814   0.08064   0.08445
 Alpha virt. eigenvalues --    0.08772   0.09251   0.09456   0.09977   0.11440

  Beta  occ. eigenvalues --  -20.60682 -20.59554 -11.28430 -11.24654 -11.23492
  Beta  occ. eigenvalues --  -11.22992 -11.22938 -11.22416 -11.22357 -11.20930
  Beta  occ. eigenvalues --  -11.20919  -1.45007  -1.16092  -1.09494  -1.07802
  Beta  occ. eigenvalues --   -0.99759  -0.95039  -0.93381  -0.92761  -0.82204
  Beta  occ. eigenvalues --   -0.77077  -0.74419  -0.68994  -0.64935  -0.63019
  Beta  occ. eigenvalues --   -0.61293  -0.60561  -0.59924  -0.59179  -0.58258
  Beta  occ. eigenvalues --   -0.55633  -0.54796  -0.53523  -0.53358  -0.52139
  Beta  occ. eigenvalues --   -0.50871  -0.50588  -0.49748  -0.48270  -0.46802
  Beta  occ. eigenvalues --   -0.45975  -0.44946  -0.44543  -0.41059
  Beta virt. eigenvalues --    0.03437   0.04542   0.04927   0.05454   0.06247
  Beta virt. eigenvalues --    0.06476   0.06686   0.07679   0.08068   0.08136
  Beta virt. eigenvalues --    0.08566   0.08814   0.09378   0.09463   0.10217

 Mulliken atomic charges:
              1
     1  C   -0.391559
     2  H    0.056948
     3  H    0.051315
     4  H    0.099719
     5  C    0.977052
     6  H    0.078984
     7  C   -0.779171
     8  H    0.126810
     9  H    0.071938
    10  C   -0.515007
    11  H    0.080965
    12  H    0.092131
    13  C    0.547666
    14  H    0.441030
    15  C   -0.235729
    16  H    0.067514
    17  H    0.095167
    18  H    0.084817
    19  C   -0.600540
    20  H    0.066587
    21  H    0.086160
    22  H    0.070463
    23  C   -0.641468
    24  H    0.095249
    25  H    0.058226
    26  H    0.103102
    27  C    0.100651
    28  H    0.069537
    29  O   -0.053957
    30  O   -0.304600
 Sum of Mulliken atomic charges =   0.00000

 Dipole moment (field-independent basis, Debye):
    X=              0.9622    Y=             -0.6764    Z=             -3.2303  Tot=              3.4377
 Quadrupole moment (field-independent basis, Debye-Ang):
   XX=            -65.6313   YY=            -71.8462   ZZ=            -76.9371
   XY=             -0.9436   XZ=             -2.5257   YZ=             -1.3949

    1 imaginary frequencies ignored.
 Normal termination of Gaussian 09 at Fri Feb 21 06:46:38 2014.
