 Gaussian 09, Revision C.01,
 Gaussian 09:  EM64L-G09RevC.01 23-Sep-2011

 -------------------------------
 #p cbs-qb3 opt=(ts,calcfc) freq
 -------------------------------

 (Enter /usr/caen/gaussian-09revc/g09/l101.exe)
 ----------------------------------------------------
 TS_4_C9H18O_4 using B3LYP/6-311++g(d,p) to cal. freq
 ----------------------------------------------------
 Charge =  0 Multiplicity = 2

 SCF Done:  E(UB3LYP) =  -504.804414681     A.U. after   17 cycles
 SCF Done:  E(UB3LYP) =  -504.804496289     A.U. after   14 cycles
 SCF Done:  E(UB3LYP) =  -504.804497032     A.U. after   10 cycles
 Optimization completed.
    -- Stationary point found.
 Normal termination of Gaussian 09 at Sun Feb 23 15:16:05 2014.

 ---------------------------------------------------------
 #P Geom=AllCheck Guess=TCheck SCRF=Check B3LYP/CBSB7 Freq
 ---------------------------------------------------------

 Structure from the checkpoint file:  TS_4_C9H18O_4.chk
 ----------------------------------------------------
 TS_4_C9H18O_4 using B3LYP/6-311++g(d,p) to cal. freq
 ----------------------------------------------------
 Charge =  0 Multiplicity = 2

 SCF Done:  E(UB3LYP) =  -504.804497032     A.U. after    1 cycles

  Exact polarizability: 131.897   0.000 113.494   0.000   0.830  98.825
 Approx polarizability: 150.038   0.000 179.143   0.000   7.144 156.137

 ******    1 imaginary frequencies (negative Signs) ******

                     1                      2                      3
                     A                      A                      A
 Frequencies -- -1793.8468                 7.5297                27.4078
 Red. masses --     1.0944                 2.3796                 3.5323
 Frc consts  --     2.0749                 0.0001                 0.0016
 IR Inten    --    59.8307                 0.1023                 0.3424

                     4                      5                      6
                     A                      A                      A
 Frequencies --    63.4940                99.3429               110.0338
 Red. masses --     2.7288                 2.6365                 3.7364
 Frc consts  --     0.0065                 0.0153                 0.0267
 IR Inten    --     0.6995                 3.6296                 0.7730

                     7                      8                      9
                     A                      A                      A
 Frequencies --   134.4178               213.4508               216.5103
 Red. masses --     7.3101                 2.4309                 1.0574
 Frc consts  --     0.0778                 0.0653                 0.0292
 IR Inten    --     1.8650                 0.8488                 0.0435

                    10                     11                     12
                     A                      A                      A
 Frequencies --   217.3621               242.6154               250.5437
 Red. masses --     1.0584                 1.5138                 1.3418
 Frc consts  --     0.0295                 0.0525                 0.0496
 IR Inten    --     0.1476                 0.0200                 1.1561

                    13                     14                     15
                     A                      A                      A
 Frequencies --   251.1983               336.2781               340.7847
 Red. masses --     1.7804                 2.7532                 2.4678
 Frc consts  --     0.0662                 0.1834                 0.1689
 IR Inten    --     0.0274                 0.1478                 0.6877

                    16                     17                     18
                     A                      A                      A
 Frequencies --   383.4448               386.1990               418.9348
 Red. masses --     2.2480                 2.0503                 2.2311
 Frc consts  --     0.1947                 0.1802                 0.2307
 IR Inten    --     0.9186                 1.2114                 1.0782

                    19                     20                     21
                     A                      A                      A
 Frequencies --   424.9672               438.7915               584.7761
 Red. masses --     2.2557                 2.2999                 3.2002
 Frc consts  --     0.2400                 0.2609                 0.6448
 IR Inten    --     0.2114                 0.1641                12.3146

                    22                     23                     24
                     A                      A                      A
 Frequencies --   661.9045               795.0185               815.1258
 Red. masses --     4.3408                 2.5926                12.5550
 Frc consts  --     1.1205                 0.9655                 4.9149
 IR Inten    --     6.9365                 0.1341                 2.0291

                    25                     26                     27
                     A                      A                      A
 Frequencies --   838.7530               852.1406               870.0599
 Red. masses --     2.8080                 1.5348                 2.3584
 Frc consts  --     1.1639                 0.6566                 1.0519
 IR Inten    --     0.6170                 3.7300                 4.2599

                    28                     29                     30
                     A                      A                      A
 Frequencies --   928.5258               931.5279               945.6900
 Red. masses --     1.2748                 1.2631                 1.8750
 Frc consts  --     0.6476                 0.6458                 0.9880
 IR Inten    --    12.9175                 2.4496                 0.6520

                    31                     32                     33
                     A                      A                      A
 Frequencies --   954.5729               966.1138               967.3842
 Red. masses --     1.9163                 1.5497                 1.4814
 Frc consts  --     1.0288                 0.8522                 0.8168
 IR Inten    --     2.4305                 0.9449                 0.3024

                    34                     35                     36
                     A                      A                      A
 Frequencies --   971.0044               998.5934              1087.7409
 Red. masses --     1.9175                 1.1552                 1.6088
 Frc consts  --     1.0652                 0.6787                 1.1215
 IR Inten    --     1.4459                45.5222                 3.6602

                    37                     38                     39
                     A                      A                      A
 Frequencies --  1101.4280              1105.9198              1147.7366
 Red. masses --     2.8679                 1.8069                 2.2128
 Frc consts  --     2.0499                 1.3020                 1.7174
 IR Inten    --    15.1881                12.0911                11.1980

                    40                     41                     42
                     A                      A                      A
 Frequencies --  1163.9857              1188.7160              1190.6042
 Red. masses --     2.2720                 1.8428                 1.7820
 Frc consts  --     1.8137                 1.5342                 1.4883
 IR Inten    --    27.0767                 6.2476                 0.4605

                    43                     44                     45
                     A                      A                      A
 Frequencies --  1214.8055              1245.3056              1281.9310
 Red. masses --     3.6778                 1.2522                 1.2894
 Frc consts  --     3.1978                 1.1442                 1.2484
 IR Inten    --    18.5809                 0.2543                 0.1220

                    46                     47                     48
                     A                      A                      A
 Frequencies --  1316.2640              1319.9092              1365.7902
 Red. masses --     1.5272                 1.2730                 1.3847
 Frc consts  --     1.5589                 1.3067                 1.5219
 IR Inten    --     4.3553                 8.5953                 0.1100

                    49                     50                     51
                     A                      A                      A
 Frequencies --  1370.2397              1379.9426              1391.3524
 Red. masses --     1.3619                 1.4738                 1.3980
 Frc consts  --     1.5066                 1.6535                 1.5945
 IR Inten    --     1.7702                10.7369                 2.4387

                    52                     53                     54
                     A                      A                      A
 Frequencies --  1405.5597              1406.2252              1424.5866
 Red. masses --     1.2540                 1.2612                 1.2289
 Frc consts  --     1.4597                 1.4695                 1.4694
 IR Inten    --     0.7781                16.5080                 3.4381

                    55                     56                     57
                     A                      A                      A
 Frequencies --  1426.6572              1456.4887              1467.4810
 Red. masses --     1.2312                 1.0898                 1.0814
 Frc consts  --     1.4765                 1.3620                 1.3720
 IR Inten    --     9.5459                 0.0323                 2.3848

                    58                     59                     60
                     A                      A                      A
 Frequencies --  1487.5920              1489.2589              1497.3794
 Red. masses --     1.0472                 1.0471                 1.0469
 Frc consts  --     1.3653                 1.3683                 1.3830
 IR Inten    --     0.0009                 1.7091                 1.5284

                    61                     62                     63
                     A                      A                      A
 Frequencies --  1497.7345              1507.0149              1507.5024
 Red. masses --     1.0485                 1.0572                 1.0577
 Frc consts  --     1.3857                 1.4146                 1.4162
 IR Inten    --     7.4951                 3.4237                 1.9564

                    64                     65                     66
                     A                      A                      A
 Frequencies --  1513.2629              1514.1179              1949.9841
 Red. masses --     1.0434                 1.0444                 1.0462
 Frc consts  --     1.4077                 1.4107                 2.3439
 IR Inten    --     1.3331                22.8573                 7.5152

                    67                     68                     69
                     A                      A                      A
 Frequencies --  2974.4304              2981.0341              3014.1596
 Red. masses --     1.0666                 1.0672                 1.0375
 Frc consts  --     5.5597                 5.5875                 5.5535
 IR Inten    --     4.7020                32.8670                17.0593

                    70                     71                     72
                     A                      A                      A
 Frequencies --  3014.2977              3018.6400              3019.0573
 Red. masses --     1.0376                 1.0427                 1.0427
 Frc consts  --     5.5545                 5.5979                 5.5994
 IR Inten    --    40.4461                20.4492                30.1797

                    73                     74                     75
                     A                      A                      A
 Frequencies --  3033.1427              3038.4822              3048.3156
 Red. masses --     1.0876                 1.0844                 1.0860
 Frc consts  --     5.8951                 5.8984                 5.9456
 IR Inten    --     0.8930                 4.7683                 1.9944

                    76                     77                     78
                     A                      A                      A
 Frequencies --  3053.5727              3074.4438              3074.4941
 Red. masses --     1.0893                 1.0987                 1.0987
 Frc consts  --     5.9841                 6.1188                 6.1188
 IR Inten    --    17.6712                 0.0079                22.0687

                    79                     80                     81
                     A                      A                      A
 Frequencies --  3083.6725              3084.3185              3088.8944
 Red. masses --     1.0986                 1.0986                 1.1011
 Frc consts  --     6.1549                 6.1573                 6.1898
 IR Inten    --     6.6140               107.2021                40.6046

                    82                     83                     84
                     A                      A                      A
 Frequencies --  3089.0945              3102.6970              3103.1332
 Red. masses --     1.1009                 1.0991                 1.0991
 Frc consts  --     6.1893                 6.2342                 6.2360
 IR Inten    --    54.7612                60.1955                 9.7301

 - Thermochemistry -
 -------------------
 Temperature   298.150 Kelvin.  Pressure   1.00000 Atm.
 Atom     1 has atomic number  6 and mass  12.00000

 Molecular mass:   159.13850 amu.
 Principal axes and moments of inertia in atomic units:
                           1         2         3
     Eigenvalues --   892.400863599.912353790.67867
           X            1.00000   0.00000   0.00000
           Y            0.00000   0.99349  -0.11389
           Z            0.00000   0.11389   0.99349
 This molecule is an asymmetric top.
 Rotational symmetry number  1.
 Warning -- assumption of classical behavior for rotation
           may cause significant error
 Rotational temperatures (Kelvin)      0.09706     0.02406     0.02285
 Rotational constants (GHZ):           2.02234     0.50133     0.47610
    1 imaginary frequencies ignored.
 Zero-point vibrational energy     687630.8 (Joules/Mol)
                                  164.34771 (Kcal/Mol)
 Warning -- explicit consideration of  20 degrees of freedom as
           vibrations may cause significant error
 Vibrational temperatures:     10.83    39.43    91.35   142.93   158.31
          (Kelvin)            193.40   307.11   311.51   312.74   349.07
                              360.48   361.42   483.83   490.31   551.69
                              555.65   602.75   611.43   631.32   841.36
                              952.33  1143.85  1172.78  1206.78  1226.04
                             1251.82  1335.94  1340.26  1360.64  1373.42
                             1390.02  1391.85  1397.06  1436.75  1565.01
                             1584.71  1591.17  1651.33  1674.71  1710.30
                             1713.01  1747.83  1791.71  1844.41  1893.81
                             1899.05  1965.06  1971.47  1985.43  2001.84
                             2022.28  2023.24  2049.66  2052.64  2095.56
                             2111.38  2140.31  2142.71  2154.39  2154.90
                             2168.26  2168.96  2177.25  2178.48  2805.59
                             4279.54  4289.04  4336.70  4336.90  4343.14
                             4343.74  4364.01  4371.69  4385.84  4393.40
                             4423.43  4423.51  4436.71  4437.64  4444.22
                             4444.51  4464.08  4464.71

 Zero-point correction=                           0.261905 (Hartree/Particle)
 Thermal correction to Energy=                    0.276118
 Thermal correction to Enthalpy=                  0.277063
 Thermal correction to Gibbs Free Energy=         0.218323
 Sum of electronic and zero-point Energies=           -504.542592
 Sum of electronic and thermal Energies=              -504.528379
 Sum of electronic and thermal Enthalpies=            -504.527434
 Sum of electronic and thermal Free Energies=         -504.586174

                     E (Thermal)             CV                S
                      KCal/Mol        Cal/Mol-Kelvin    Cal/Mol-Kelvin
 Total                  173.267             51.450            123.628
 Electronic               0.000              0.000              1.377
 Translational            0.889              2.981             41.103
 Rotational               0.889              2.981             30.877
 Vibrational            171.489             45.489             50.270
 Vibration     1          0.593              1.987              8.575
 Vibration     2          0.593              1.984              6.009
 Vibration     3          0.597              1.972              4.346
 Vibration     4          0.604              1.950              3.467
 Vibration     5          0.606              1.941              3.268
 Vibration     6          0.613              1.919              2.882
 Vibration     7          0.644              1.820              2.014
 Vibration     8          0.645              1.816              1.988
 Vibration     9          0.646              1.815              1.981
 Vibration    10          0.659              1.775              1.784
 Vibration    11          0.663              1.762              1.727
 Vibration    12          0.663              1.761              1.722
 Vibration    13          0.717              1.603              1.230
 Vibration    14          0.720              1.594              1.208
 Vibration    15          0.753              1.506              1.026
 Vibration    16          0.755              1.500              1.015
 Vibration    17          0.782              1.429              0.896
 Vibration    18          0.787              1.416              0.875
 Vibration    19          0.799              1.386              0.830
 Vibration    20          0.942              1.064              0.477

 Optimization completed.
    -- Stationary point found.
 Normal termination of Gaussian 09 at Sun Feb 23 15:29:55 2014.

 -----------------------------------------------------------
 #P Geom=AllCheck Guess=TCheck SCRF=Check CCSD(T)/6-31+G(d')
 -----------------------------------------------------------

 Structure from the checkpoint file:  TS_4_C9H18O_4.chk
 ----------------------------------------------------
 TS_4_C9H18O_4 using B3LYP/6-311++g(d,p) to cal. freq
 ----------------------------------------------------
 Charge =  0 Multiplicity = 2

 SCF Done:  E(UHF) =  -501.385740103     A.U. after   23 cycles
 E2 =    -0.1572007051D+01 EUMP2 =    -0.50295774715379D+03
 CCSD(T)
 CCSD(T)= -0.50314805775D+03
 MP3-0=-503.0613081\MP4SDQ=-503.0795001\CCSD=-503.0898194\CCSD(T)=-503.
 Normal termination of Gaussian 09 at Mon Feb 24 02:01:59 2014.

 -----------------------------------------------------
 #P Geom=AllCheck Guess=TCheck SCRF=Check MP4SDQ/CBSB4
 -----------------------------------------------------

 Structure from the checkpoint file:  TS_4_C9H18O_4.chk
 ----------------------------------------------------
 TS_4_C9H18O_4 using B3LYP/6-311++g(d,p) to cal. freq
 ----------------------------------------------------
 Charge =  0 Multiplicity = 2

 SCF Done:  E(UHF) =  -501.414550815     A.U. after   19 cycles
 E2 =    -0.1698971424D+01 EUMP2 =    -0.50311352223968D+03
 Normal termination of Gaussian 09 at Mon Feb 24 02:32:33 2014.

 ----------------------------------------------------------------------
 #P Geom=AllCheck Guess=TCheck SCRF=Check MP2/CBSB3 CBSExtrap=(NMin=10,
 MinPop)
 ----------------------------------------------------------------------

 Structure from the checkpoint file:  TS_4_C9H18O_4.chk
 ----------------------------------------------------
 TS_4_C9H18O_4 using B3LYP/6-311++g(d,p) to cal. freq
 ----------------------------------------------------
 Charge =  0 Multiplicity = 2

                         Standard orientation:
 ---------------------------------------------------------------------
 Center     Atomic      Atomic             Coordinates (Angstroms)
 Number     Number       Type             X           Y           Z
 ---------------------------------------------------------------------
      1          6           0       -3.804621   -1.016861   -0.001040
      2          1           0       -3.718032   -1.797974    0.759795
      3          1           0       -3.901302   -1.507879   -0.975883
      4          1           0       -4.732477   -0.469664    0.186255
      5          6           0       -2.595689   -0.071235    0.025831
      6          1           0       -2.521040    0.362015    1.028101
      7          6           0       -1.298630   -0.865556   -0.225336
      8          1           0       -1.347605   -1.808997    0.339337
      9          1           0       -1.227214   -1.144025   -1.283011
     10          6           0        1.298625   -0.865545   -0.225369
     11          1           0        1.227206   -1.143955   -1.283059
     12          1           0        1.347589   -1.809020    0.339250
     13          6           0        2.595694   -0.071256    0.025846
     14          1           0        2.521059    0.361917    1.028150
     15          6           0        3.804614   -1.016895   -0.001110
     16          1           0        3.901285   -1.507833   -0.975994
     17          1           0        4.732478   -0.469725    0.186227
     18          1           0        3.718020   -1.798070    0.759661
     19          6           0       -2.779418    1.070460   -0.983561
     20          1           0       -2.844762    0.682540   -2.006426
     21          1           0       -3.701709    1.621058   -0.778669
     22          1           0       -1.958375    1.788699   -0.941548
     23          6           0        2.779428    1.070515   -0.983458
     24          1           0        3.701738    1.621072   -0.778544
     25          1           0        2.844738    0.682678   -2.006357
     26          1           0        1.958405    1.788772   -0.941365
     27          6           0        0.000000   -0.204624    0.195001
     28          1           0       -0.000012    1.090062   -0.109900
     29          8           0        0.000009    0.248084    1.525796
     30          8           0       -0.000010    1.662454    1.035849
 ---------------------------------------------------------------------

 SCF Done:  E(UHF) =  -501.552398673     A.U. after   19 cycles
 E2 =    -0.2001589063D+01 EUMP2 =    -0.50355398773587D+03
 E2(CBS)=      -2.197233 CBS-Int=       0.065648 OIii=      17.256070

 The electronic state is 2-A.
 Alpha  occ. eigenvalues --  -20.66118 -20.61880 -11.31845 -11.23469 -11.23468
 Alpha  occ. eigenvalues --  -11.22976 -11.22976 -11.21348 -11.21348 -11.21110
 Alpha  occ. eigenvalues --  -11.21110  -1.49260  -1.23143  -1.10189  -1.08771
 Alpha  occ. eigenvalues --   -1.01444  -0.93754  -0.93126  -0.93043  -0.84765
 Alpha  occ. eigenvalues --   -0.79141  -0.76876  -0.70062  -0.68319  -0.65225
 Alpha  occ. eigenvalues --   -0.62268  -0.61893  -0.60217  -0.59086  -0.58475
 Alpha  occ. eigenvalues --   -0.58309  -0.55709  -0.54385  -0.53855  -0.53776
 Alpha  occ. eigenvalues --   -0.53102  -0.51565  -0.49538  -0.48045  -0.47030
 Alpha  occ. eigenvalues --   -0.46813  -0.46721  -0.46357  -0.43552  -0.40023
 Alpha virt. eigenvalues --    0.03827   0.04593   0.04978   0.05578   0.06376
 Alpha virt. eigenvalues --    0.06566   0.06821   0.07598   0.08339   0.08418
 Alpha virt. eigenvalues --    0.08701   0.09482   0.09607   0.09742   0.11177

  Beta  occ. eigenvalues --  -20.63383 -20.61493 -11.30211 -11.23546 -11.23544
  Beta  occ. eigenvalues --  -11.22948 -11.22948 -11.21353 -11.21353 -11.21119
  Beta  occ. eigenvalues --  -11.21119  -1.45975  -1.14410  -1.09792  -1.08728
  Beta  occ. eigenvalues --   -1.00414  -0.93667  -0.93101  -0.93056  -0.81636
  Beta  occ. eigenvalues --   -0.77124  -0.76811  -0.67888  -0.65140  -0.63406
  Beta  occ. eigenvalues --   -0.61500  -0.60522  -0.59257  -0.59063  -0.57866
  Beta  occ. eigenvalues --   -0.54825  -0.54150  -0.54044  -0.53812  -0.53019
  Beta  occ. eigenvalues --   -0.51260  -0.49323  -0.49075  -0.46796  -0.46795
  Beta  occ. eigenvalues --   -0.46626  -0.45720  -0.45613  -0.43275
  Beta virt. eigenvalues --    0.03733   0.04596   0.04952   0.05565   0.06327
  Beta virt. eigenvalues --    0.06378   0.06822   0.07310   0.08311   0.08422
  Beta virt. eigenvalues --    0.08634   0.09132   0.09484   0.09745   0.09867

 Mulliken atomic charges:
              1
     1  C   -0.382234
     2  H    0.056696
     3  H    0.052102
     4  H    0.106629
     5  C    1.018786
     6  H    0.085952
     7  C   -0.549639
     8  H    0.089310
     9  H    0.084214
    10  C   -0.549701
    11  H    0.084222
    12  H    0.089302
    13  C    1.018822
    14  H    0.085951
    15  C   -0.382233
    16  H    0.052101
    17  H    0.106631
    18  H    0.056696
    19  C   -0.638218
    20  H    0.061692
    21  H    0.085366
    22  H    0.071926
    23  C   -0.638224
    24  H    0.085368
    25  H    0.061691
    26  H    0.071928
    27  C    0.018259
    28  H   -0.041294
    29  O   -0.119424
    30  O   -0.142676
 Sum of Mulliken atomic charges =   0.00000

 Dipole moment (field-independent basis, Debye):
    X=              0.0000    Y=             -1.5777    Z=             -1.8635  Tot=              2.4417
 Quadrupole moment (field-independent basis, Debye-Ang):
   XX=            -70.1081   YY=            -73.1840   ZZ=            -74.9402
   XY=              0.0000   XZ=              0.0000   YZ=             -1.5245

    1 imaginary frequencies ignored.
 Normal termination of Gaussian 09 at Mon Feb 24 04:04:05 2014.
