 Gaussian 09, Revision C.01,
 Gaussian 09:  EM64L-G09RevC.01 23-Sep-2011

 -------------------------------
 #p cbs-qb3 opt=(ts,calcfc) freq
 -------------------------------

 (Enter /usr/caen/gaussian-09revc/g09/l101.exe)
 ----------------------------------------------------
 TS_4_C9H18_3 using B3LYP/6-311++g(d,p) to calc. freq
 ----------------------------------------------------
 Charge =  0 Multiplicity = 2

 SCF Done:  E(UB3LYP) =  -504.831061928     A.U. after   22 cycles
 SCF Done:  E(UB3LYP) =  -504.831105374     A.U. after   14 cycles
 SCF Done:  E(UB3LYP) =  -504.831105335     A.U. after   10 cycles
 Optimization completed.
    -- Stationary point found.
 Normal termination of Gaussian 09 at Thu Feb 20 11:10:24 2014.

 ---------------------------------------------------------
 #P Geom=AllCheck Guess=TCheck SCRF=Check B3LYP/CBSB7 Freq
 ---------------------------------------------------------

 Structure from the checkpoint file:  TS_4_C9H18_3.chk
 ----------------------------------------------------
 TS_4_C9H18_3 using B3LYP/6-311++g(d,p) to calc. freq
 ----------------------------------------------------
 Charge =  0 Multiplicity = 2

 SCF Done:  E(UB3LYP) =  -504.831105335     A.U. after    1 cycles

  Exact polarizability: 142.806  -3.248 124.266  -5.716  -0.435  95.998
 Approx polarizability: 184.911 -15.568 188.146 -18.401  -0.890 157.094

 ******    1 imaginary frequencies (negative Signs) ******

                     1                      2                      3
                     A                      A                      A
 Frequencies --  -998.5145                35.8585                43.2198
 Red. masses --     1.3758                 2.5819                 2.8353
 Frc consts  --     0.8082                 0.0020                 0.0031
 IR Inten    --   195.5803                 0.0284                 0.3403

                     4                      5                      6
                     A                      A                      A
 Frequencies --    68.6934                78.0831               118.2609
 Red. masses --     3.1856                 3.4000                 5.4736
 Frc consts  --     0.0089                 0.0122                 0.0451
 IR Inten    --     0.2722                 0.3259                 3.1786

                     7                      8                      9
                     A                      A                      A
 Frequencies --   160.0431               190.6772               203.0170
 Red. masses --     5.4152                 4.0391                 1.8370
 Frc consts  --     0.0817                 0.0865                 0.0446
 IR Inten    --     0.5826                 4.5862                 0.3700

                    10                     11                     12
                     A                      A                      A
 Frequencies --   223.4786               231.8912               249.0109
 Red. masses --     1.0863                 1.0701                 1.2964
 Frc consts  --     0.0320                 0.0339                 0.0474
 IR Inten    --     0.3774                 0.3961                 0.4782

                    13                     14                     15
                     A                      A                      A
 Frequencies --   262.4536               275.0108               330.4183
 Red. masses --     1.3511                 2.0496                 2.7370
 Frc consts  --     0.0548                 0.0913                 0.1761
 IR Inten    --     2.8009                 0.6265                 8.9539

                    16                     17                     18
                     A                      A                      A
 Frequencies --   367.3823               377.4353               421.7157
 Red. masses --     2.6696                 2.1839                 1.8485
 Frc consts  --     0.2123                 0.1833                 0.1937
 IR Inten    --    10.2118                 0.2622                 0.1334

                    19                     20                     21
                     A                      A                      A
 Frequencies --   437.4554               484.1269               519.5917
 Red. masses --     2.4339                 2.8997                 2.7593
 Frc consts  --     0.2744                 0.4004                 0.4389
 IR Inten    --     0.8834                17.0557                15.1925

                    22                     23                     24
                     A                      A                      A
 Frequencies --   560.3997               678.4569               804.7123
 Red. masses --     2.1519                 6.2019                 2.5620
 Frc consts  --     0.3982                 1.6820                 0.9775
 IR Inten    --     4.4641                 2.8726                 1.6138

                    25                     26                     27
                     A                      A                      A
 Frequencies --   829.1336               881.0730               915.3539
 Red. masses --     2.0537                 1.6413                 1.6008
 Frc consts  --     0.8318                 0.7507                 0.7903
 IR Inten    --     1.6244                 2.6781                 0.9042

                    28                     29                     30
                     A                      A                      A
 Frequencies --   929.2009               931.5918               948.9691
 Red. masses --     1.3667                 1.1859                 1.6430
 Frc consts  --     0.6952                 0.6064                 0.8717
 IR Inten    --     1.6047                 0.4779                 1.9090

                    31                     32                     33
                     A                      A                      A
 Frequencies --   957.6933               964.1357               965.3637
 Red. masses --     1.6484                 1.5552                 1.6232
 Frc consts  --     0.8908                 0.8517                 0.8913
 IR Inten    --     7.8179                 1.5175                 1.5103

                    34                     35                     36
                     A                      A                      A
 Frequencies --   982.3474              1045.8652              1101.1888
 Red. masses --     1.1338                 2.0892                 1.5649
 Frc consts  --     0.6446                 1.3464                 1.1181
 IR Inten    --     5.1006                11.1497                 2.0877

                    37                     38                     39
                     A                      A                      A
 Frequencies --  1127.9162              1134.1751              1184.1941
 Red. masses --     2.1323                 2.0883                 1.8033
 Frc consts  --     1.5983                 1.5827                 1.4899
 IR Inten    --     2.1265                 4.2322                12.6339

                    40                     41                     42
                     A                      A                      A
 Frequencies --  1187.6399              1192.0697              1238.5208
 Red. masses --     1.7883                 2.1040                 1.4168
 Frc consts  --     1.4862                 1.7616                 1.2804
 IR Inten    --     8.4002                 0.6315                10.5763

                    43                     44                     45
                     A                      A                      A
 Frequencies --  1274.7993              1279.3112              1306.9844
 Red. masses --     1.1032                 1.3460                 1.3056
 Frc consts  --     1.0563                 1.2979                 1.3140
 IR Inten    --     9.0560                 3.4351                36.3768

                    46                     47                     48
                     A                      A                      A
 Frequencies --  1311.7172              1326.9585              1348.7106
 Red. masses --     1.5374                 3.4289                 1.3514
 Frc consts  --     1.5586                 3.5573                 1.4484
 IR Inten    --    17.7243               194.6045                 1.3410

                    49                     50                     51
                     A                      A                      A
 Frequencies --  1362.6330              1367.4860              1382.8985
 Red. masses --     1.3533                 1.3972                 1.3555
 Frc consts  --     1.4805                 1.5394                 1.5273
 IR Inten    --    12.1373                 0.4825                 0.9337

                    52                     53                     54
                     A                      A                      A
 Frequencies --  1400.6756              1404.4169              1421.1810
 Red. masses --     1.2384                 1.2543                 1.2271
 Frc consts  --     1.4315                 1.4576                 1.4602
 IR Inten    --     5.4177                 5.8945                 6.1769

                    55                     56                     57
                     A                      A                      A
 Frequencies --  1423.8674              1482.8291              1489.0079
 Red. masses --     1.2298                 1.0898                 1.0453
 Frc consts  --     1.4690                 1.4118                 1.3655
 IR Inten    --     5.7695                 1.8138                 0.1010

                    58                     59                     60
                     A                      A                      A
 Frequencies --  1490.8063              1493.6792              1497.1679
 Red. masses --     1.0449                 1.0473                 1.0618
 Frc consts  --     1.3682                 1.3767                 1.4023
 IR Inten    --     0.7612                 4.7526                 3.4117

                    61                     62                     63
                     A                      A                      A
 Frequencies --  1504.4737              1506.4466              1510.3805
 Red. masses --     1.0545                 1.0511                 1.0493
 Frc consts  --     1.4062                 1.4054                 1.4103
 IR Inten    --     4.6030                10.1558                16.7689

                    64                     65                     66
                     A                      A                      A
 Frequencies --  1512.1287              1561.3958              1589.7943
 Red. masses --     1.0509                 1.5906                 1.7293
 Frc consts  --     1.4157                 2.2848                 2.5752
 IR Inten    --    10.2087                35.6735                28.0979

                    67                     68                     69
                     A                      A                      A
 Frequencies --  2995.3831              3005.2961              3015.1599
 Red. masses --     1.0822                 1.0825                 1.0354
 Frc consts  --     5.7210                 5.7606                 5.5461
 IR Inten    --    10.3600                 7.8950                25.3471

                    70                     71                     72
                     A                      A                      A
 Frequencies --  3016.0893              3017.6488              3020.3396
 Red. masses --     1.0415                 1.0476                 1.0374
 Frc consts  --     5.5821                 5.6208                 5.5759
 IR Inten    --    10.4943                24.8413                29.2612

                    73                     74                     75
                     A                      A                      A
 Frequencies --  3023.8971              3060.4820              3066.8911
 Red. masses --     1.0449                 1.1026                 1.0852
 Frc consts  --     5.6296                 6.0849                 6.0136
 IR Inten    --    39.7191                 8.6954                 8.7106

                    76                     77                     78
                     A                      A                      A
 Frequencies --  3075.3292              3075.9093              3082.5665
 Red. masses --     1.1008                 1.1002                 1.0997
 Frc consts  --     6.1342                 6.1332                 6.1566
 IR Inten    --     3.0274                 5.0813                44.7790

                    79                     80                     81
                     A                      A                      A
 Frequencies --  3083.0584              3087.9683              3088.4982
 Red. masses --     1.0995                 1.1017                 1.1019
 Frc consts  --     6.1575                 6.1897                 6.1928
 IR Inten    --   106.3803                35.1456                37.9957

                    82                     83                     84
                     A                      A                      A
 Frequencies --  3093.9078              3102.6648              3144.7923
 Red. masses --     1.1022                 1.0995                 1.0887
 Frc consts  --     6.2160                 6.2362                 6.3439
 IR Inten    --    38.4272                28.3103                15.3217

 - Thermochemistry -
 -------------------
 Temperature   298.150 Kelvin.  Pressure   1.00000 Atm.
 Atom     1 has atomic number  6 and mass  12.00000

 Molecular mass:   159.13850 amu.
 Principal axes and moments of inertia in atomic units:
                           1         2         3
     Eigenvalues --  1437.433572960.377344118.47503
           X            0.99959   0.02873   0.00074
           Y           -0.02873   0.99958   0.00285
           Z           -0.00066  -0.00287   1.00000
 This molecule is an asymmetric top.
 Rotational symmetry number  1.
 Warning -- assumption of classical behavior for rotation
           may cause significant error
 Rotational temperatures (Kelvin)      0.06026     0.02926     0.02103
 Rotational constants (GHZ):           1.25553     0.60963     0.43821
    1 imaginary frequencies ignored.
 Zero-point vibrational energy     687514.5 (Joules/Mol)
                                  164.31992 (Kcal/Mol)
 Warning -- explicit consideration of  21 degrees of freedom as
           vibrations may cause significant error
 Vibrational temperatures:     51.59    62.18    98.83   112.34   170.15
          (Kelvin)            230.27   274.34   292.10   321.54   333.64
                              358.27   377.61   395.68   475.40   528.58
                              543.04   606.75   629.40   696.55   747.58
                              806.29   976.15  1157.80  1192.94  1267.67
                             1316.99  1336.91  1340.35  1365.35  1377.91
                             1387.17  1388.94  1413.38  1504.76  1584.36
                             1622.82  1631.82  1703.79  1708.75  1715.12
                             1781.95  1834.15  1840.64  1880.46  1887.27
                             1909.19  1940.49  1960.52  1967.50  1989.68
                             2015.26  2020.64  2044.76  2048.63  2133.46
                             2142.35  2144.94  2149.07  2154.09  2164.60
                             2167.44  2173.10  2175.61  2246.50  2287.36
                             4309.68  4323.95  4338.14  4339.47  4341.72
                             4345.59  4350.71  4403.35  4412.57  4424.71
                             4425.54  4435.12  4435.83  4442.89  4443.65
                             4451.44  4464.04  4524.65

 Zero-point correction=                           0.261860 (Hartree/Particle)
 Thermal correction to Energy=                    0.276160
 Thermal correction to Enthalpy=                  0.277104
 Thermal correction to Gibbs Free Energy=         0.219732
 Sum of electronic and zero-point Energies=           -504.569245
 Sum of electronic and thermal Energies=              -504.554946
 Sum of electronic and thermal Enthalpies=            -504.554002
 Sum of electronic and thermal Free Energies=         -504.611373

                     E (Thermal)             CV                S
                      KCal/Mol        Cal/Mol-Kelvin    Cal/Mol-Kelvin
 Total                  173.293             51.781            120.749
 Electronic               0.000              0.000              1.377
 Translational            0.889              2.981             41.103
 Rotational               0.889              2.981             31.239
 Vibrational            171.515             45.819             47.029
 Vibration     1          0.594              1.982              5.476
 Vibration     2          0.595              1.980              5.106
 Vibration     3          0.598              1.969              4.190
 Vibration     4          0.599              1.964              3.938
 Vibration     5          0.608              1.934              3.129
 Vibration     6          0.622              1.891              2.549
 Vibration     7          0.634              1.853              2.221
 Vibration     8          0.639              1.836              2.106
 Vibration     9          0.649              1.805              1.931
 Vibration    10          0.653              1.792              1.864
 Vibration    11          0.662              1.764              1.738
 Vibration    12          0.670              1.742              1.645
 Vibration    13          0.677              1.720              1.565
 Vibration    14          0.713              1.615              1.258
 Vibration    15          0.740              1.539              1.091
 Vibration    16          0.748              1.518              1.049
 Vibration    17          0.784              1.423              0.886
 Vibration    18          0.798              1.389              0.835
 Vibration    19          0.840              1.285              0.699
 Vibration    20          0.875              1.207              0.611
 Vibration    21          0.916              1.117              0.523

 Optimization completed.
    -- Stationary point found.
 Normal termination of Gaussian 09 at Thu Feb 20 11:20:17 2014.

 -----------------------------------------------------------
 #P Geom=AllCheck Guess=TCheck SCRF=Check CCSD(T)/6-31+G(d')
 -----------------------------------------------------------

 Structure from the checkpoint file:  TS_4_C9H18_3.chk
 ----------------------------------------------------
 TS_4_C9H18_3 using B3LYP/6-311++g(d,p) to calc. freq
 ----------------------------------------------------
 Charge =  0 Multiplicity = 2

 SCF Done:  E(UHF) =  -501.392265016     A.U. after   28 cycles
 E2 =    -0.1599569006D+01 EUMP2 =    -0.50299183402195D+03
 CCSD(T)
 CCSD(T)= -0.50316539069D+03
 PMP3-0=-503.0744207\MP4SDQ=-503.100546\CCSD=-503.1037923\CCSD(T)=-503.
 Normal termination of Gaussian 09 at Fri Feb 21 01:44:15 2014.

 -----------------------------------------------------
 #P Geom=AllCheck Guess=TCheck SCRF=Check MP4SDQ/CBSB4
 -----------------------------------------------------

 Structure from the checkpoint file:  TS_4_C9H18_3.chk
 ----------------------------------------------------
 TS_4_C9H18_3 using B3LYP/6-311++g(d,p) to calc. freq
 ----------------------------------------------------
 Charge =  0 Multiplicity = 2

 SCF Done:  E(UHF) =  -501.421366033     A.U. after   27 cycles
 E2 =    -0.1724925873D+01 EUMP2 =    -0.50314629190622D+03
 Normal termination of Gaussian 09 at Fri Feb 21 02:16:15 2014.

 ----------------------------------------------------------------------
 #P Geom=AllCheck Guess=TCheck SCRF=Check MP2/CBSB3 CBSExtrap=(NMin=10,
 MinPop)
 ----------------------------------------------------------------------

 Structure from the checkpoint file:  TS_4_C9H18_3.chk
 ----------------------------------------------------
 TS_4_C9H18_3 using B3LYP/6-311++g(d,p) to calc. freq
 ----------------------------------------------------
 Charge =  0 Multiplicity = 2

                         Standard orientation:
 ---------------------------------------------------------------------
 Center     Atomic      Atomic             Coordinates (Angstroms)
 Number     Number       Type             X           Y           Z
 ---------------------------------------------------------------------
      1          6           0       -3.409949   -0.659033    0.534437
      2          1           0       -3.700571    0.388337    0.648694
      3          1           0       -3.265206   -1.079097    1.535770
      4          1           0       -4.245385   -1.190819    0.070930
      5          6           0       -2.133352   -0.800690   -0.307410
      6          1           0       -2.321911   -0.339864   -1.285346
      7          6           0       -0.957473   -0.050351    0.329873
      8          1           0       -1.447821    1.158837    0.548951
      9          1           0       -0.719438   -0.356288    1.352609
     10          6           0        1.484800    0.701730    0.102050
     11          1           0        1.442584    0.815602    1.191481
     12          1           0        1.815650    1.661747   -0.306458
     13          6           0        2.551720   -0.367065   -0.257600
     14          1           0        2.506333   -0.526564   -1.343044
     15          6           0        3.952578    0.160916    0.080579
     16          1           0        4.046927    0.358341    1.153794
     17          1           0        4.722033   -0.567109   -0.191419
     18          1           0        4.167950    1.092428   -0.450303
     19          6           0       -1.794932   -2.282342   -0.538316
     20          1           0       -1.568681   -2.782817    0.409182
     21          1           0       -2.635632   -2.809107   -0.999934
     22          1           0       -0.925978   -2.394882   -1.192095
     23          6           0        2.292374   -1.711124    0.433995
     24          1           0        3.048068   -2.447781    0.146921
     25          1           0        2.334290   -1.601192    1.523246
     26          1           0        1.313024   -2.120266    0.177561
     27          6           0        0.117865    0.402446   -0.432888
     28          1           0        0.022189    0.404885   -1.515846
     29          8           0       -0.588541    2.558446   -0.476548
     30          8           0       -1.562735    2.437639    0.333671
 ---------------------------------------------------------------------

 SCF Done:  E(UHF) =  -501.558318879     A.U. after   27 cycles
 E2 =    -0.2027744950D+01 EUMP2 =    -0.50358606382882D+03
 E2(CBS)=      -2.223250 CBS-Int=       0.065941 OIii=      17.205612

 The electronic state is 2-A.
 Alpha  occ. eigenvalues --  -20.63944 -20.61981 -11.29603 -11.24691 -11.24158
 Alpha  occ. eigenvalues --  -11.24054 -11.22360 -11.22295 -11.22241 -11.21933
 Alpha  occ. eigenvalues --  -11.21424  -1.55278  -1.12887  -1.11572  -1.09267
 Alpha  occ. eigenvalues --   -1.03339  -0.94661  -0.94032  -0.93488  -0.82081
 Alpha  occ. eigenvalues --   -0.78141  -0.77644  -0.72523  -0.71930  -0.66028
 Alpha  occ. eigenvalues --   -0.64055  -0.63550  -0.62349  -0.60667  -0.59617
 Alpha  occ. eigenvalues --   -0.57928  -0.56300  -0.54909  -0.54080  -0.53805
 Alpha  occ. eigenvalues --   -0.52556  -0.50264  -0.49425  -0.48588  -0.47868
 Alpha  occ. eigenvalues --   -0.47604  -0.46683  -0.45864  -0.45482  -0.37788
 Alpha virt. eigenvalues --    0.03576   0.04487   0.04616   0.05399   0.06044
 Alpha virt. eigenvalues --    0.06412   0.06775   0.07512   0.07774   0.08455
 Alpha virt. eigenvalues --    0.08722   0.09316   0.09755   0.09923   0.10514

  Beta  occ. eigenvalues --  -20.60153 -20.59350 -11.30141 -11.24741 -11.24086
  Beta  occ. eigenvalues --  -11.24085 -11.22295 -11.22241 -11.22026 -11.21911
  Beta  occ. eigenvalues --  -11.21418  -1.47124  -1.13316  -1.09389  -1.03972
  Beta  occ. eigenvalues --   -0.99632  -0.94399  -0.93818  -0.93446  -0.82405
  Beta  occ. eigenvalues --   -0.78262  -0.77479  -0.69290  -0.65955  -0.63939
  Beta  occ. eigenvalues --   -0.62187  -0.60914  -0.60544  -0.59578  -0.57565
  Beta  occ. eigenvalues --   -0.56066  -0.54907  -0.54041  -0.53861  -0.52519
  Beta  occ. eigenvalues --   -0.50259  -0.49056  -0.48666  -0.47903  -0.47626
  Beta  occ. eigenvalues --   -0.47488  -0.46172  -0.40861  -0.34142
  Beta virt. eigenvalues --    0.03578   0.04486   0.04615   0.05392   0.06032
  Beta virt. eigenvalues --    0.06392   0.06774   0.07433   0.07716   0.08454
  Beta virt. eigenvalues --    0.08699   0.09223   0.09324   0.09778   0.09935

 Mulliken atomic charges:
              1
     1  C   -0.421406
     2  H    0.068357
     3  H    0.053663
     4  H    0.094554
     5  C    0.960889
     6  H    0.048317
     7  C   -1.335163
     8  H    0.481694
     9  H    0.174811
    10  C   -0.603916
    11  H    0.114042
    12  H    0.102563
    13  C    0.634076
    14  H    0.045664
    15  C   -0.442748
    16  H    0.060730
    17  H    0.078910
    18  H    0.066552
    19  C   -0.611458
    20  H    0.074476
    21  H    0.085316
    22  H    0.060544
    23  C   -0.521850
    24  H    0.083174
    25  H    0.073458
    26  H    0.055485
    27  C    0.670331
    28  H    0.219502
    29  O   -0.064083
    30  O   -0.306484
 Sum of Mulliken atomic charges =   0.00000

 Dipole moment (field-independent basis, Debye):
    X=              2.0387    Y=             -3.7379    Z=             -0.3533  Tot=              4.2723
 Quadrupole moment (field-independent basis, Debye-Ang):
   XX=            -70.0830   YY=            -84.8518   ZZ=            -69.8477
   XY=              5.8826   XZ=              0.2241   YZ=              0.0540

    1 imaginary frequencies ignored.
 Normal termination of Gaussian 09 at Fri Feb 21 03:50:53 2014.
