 Gaussian 09, Revision C.01,
 Gaussian 09:  EM64L-G09RevC.01 23-Sep-2011

 -------------------------------
 #p cbs-qb3 opt=(TS,calcfc) freq
 -------------------------------

 (Enter /usr/caen/gaussian-09revc/g09/l101.exe)
 ------------------------------------
 TS_4_4a using cbs-qb3 to cal. energy
 ------------------------------------
 Charge =  0 Multiplicity = 2

 SCF Done:  E(UB3LYP) =  -504.832927954     A.U. after   17 cycles
 SCF Done:  E(UB3LYP) =  -504.832955222     A.U. after   12 cycles
 SCF Done:  E(UB3LYP) =  -504.832955482     A.U. after    8 cycles
 Optimization completed.
    -- Stationary point found.
 Normal termination of Gaussian 09 at Thu Feb 20 02:11:23 2014.

 ---------------------------------------------------------
 #P Geom=AllCheck Guess=TCheck SCRF=Check B3LYP/CBSB7 Freq
 ---------------------------------------------------------

 Structure from the checkpoint file:  TS_4_4a.chk
 ------------------------------------
 TS_4_4a using cbs-qb3 to cal. energy
 ------------------------------------
 Charge =  0 Multiplicity = 2

 SCF Done:  E(UB3LYP) =  -504.832955482     A.U. after    1 cycles

  Exact polarizability: 155.575  -1.580 108.383   3.735   2.183  97.328
 Approx polarizability: 183.781  -2.905 162.814   9.159   3.208 151.514

 ******    1 imaginary frequencies (negative Signs) ******

                     1                      2                      3
                     A                      A                      A
 Frequencies -- -1622.5507                37.7239                57.7650
 Red. masses --     1.1287                 3.0328                 2.9082
 Frc consts  --     1.7508                 0.0025                 0.0057
 IR Inten    --   851.0608                 0.5004                 0.2427

                     4                      5                      6
                     A                      A                      A
 Frequencies --    90.3244               103.9003               177.2130
 Red. masses --     3.0153                 3.0148                 2.7322
 Frc consts  --     0.0145                 0.0192                 0.0506
 IR Inten    --     1.0834                 0.9875                 0.4366

                     7                      8                      9
                     A                      A                      A
 Frequencies --   224.5954               229.4237               233.7614
 Red. masses --     1.6975                 1.1129                 2.1046
 Frc consts  --     0.0504                 0.0345                 0.0678
 IR Inten    --     0.7292                 0.0926                 0.1547

                    10                     11                     12
                     A                      A                      A
 Frequencies --   249.2985               268.1730               302.0354
 Red. masses --     1.1589                 1.7024                 3.4212
 Frc consts  --     0.0424                 0.0721                 0.1839
 IR Inten    --     0.2362                 1.1476                 1.8775

                    13                     14                     15
                     A                      A                      A
 Frequencies --   345.0139               355.6687               371.2724
 Red. masses --     2.6864                 3.3422                 2.2053
 Frc consts  --     0.1884                 0.2491                 0.1791
 IR Inten    --     2.1578                 0.5925                 0.1182

                    16                     17                     18
                     A                      A                      A
 Frequencies --   406.8708               427.6001               453.7133
 Red. masses --     2.0034                 2.1745                 2.2430
 Frc consts  --     0.1954                 0.2342                 0.2720
 IR Inten    --     0.7386                 0.4217                 0.9177

                    19                     20                     21
                     A                      A                      A
 Frequencies --   488.9458               563.2099               610.9510
 Red. masses --     1.4688                 2.8616                 2.3517
 Frc consts  --     0.2069                 0.5348                 0.5172
 IR Inten    --     2.5704                 6.9240                 1.6267

                    22                     23                     24
                     A                      A                      A
 Frequencies --   631.3966               810.7238               815.1130
 Red. masses --     2.9189                 3.4460                 3.1197
 Frc consts  --     0.6856                 1.3345                 1.2212
 IR Inten    --     4.9746                 2.6605                 6.5053

                    25                     26                     27
                     A                      A                      A
 Frequencies --   843.4609               872.7559               918.2593
 Red. masses --     2.1701                 1.6443                 1.9107
 Frc consts  --     0.9096                 0.7379                 0.9492
 IR Inten    --     1.8272                 0.6661                 9.7658

                    28                     29                     30
                     A                      A                      A
 Frequencies --   931.4220               943.8857               954.5815
 Red. masses --     1.2140                 2.2456                 1.4593
 Frc consts  --     0.6205                 1.1788                 0.7835
 IR Inten    --     2.1187                 3.8882                 0.1063

                    31                     32                     33
                     A                      A                      A
 Frequencies --   959.6701               965.1501               979.1271
 Red. masses --     1.7820                 1.4257                 2.2320
 Frc consts  --     0.9670                 0.7825                 1.2607
 IR Inten    --     8.8246                 0.6573                13.5090

                    34                     35                     36
                     A                      A                      A
 Frequencies --   997.3478              1042.6774              1049.3932
 Red. masses --     1.8722                 1.8159                 2.6600
 Frc consts  --     1.0972                 1.1631                 1.7258
 IR Inten    --     1.4239                 1.3998                17.9944

                    37                     38                     39
                     A                      A                      A
 Frequencies --  1077.2995              1106.3676              1140.2393
 Red. masses --     1.6512                 1.6416                 1.9572
 Frc consts  --     1.1291                 1.1839                 1.4992
 IR Inten    --    18.7897                 2.3308                11.3762

                    40                     41                     42
                     A                      A                      A
 Frequencies --  1166.8277              1170.1396              1179.6500
 Red. masses --     2.0154                 1.5509                 2.2658
 Frc consts  --     1.6167                 1.2511                 1.8577
 IR Inten    --     4.9054                 8.7707                 7.0731

                    43                     44                     45
                     A                      A                      A
 Frequencies --  1192.2928              1247.4166              1276.4279
 Red. masses --     1.8530                 1.3786                 1.3265
 Frc consts  --     1.5520                 1.2639                 1.2734
 IR Inten    --     4.7698                 1.6026                 0.5393

                    46                     47                     48
                     A                      A                      A
 Frequencies --  1291.2285              1319.7626              1346.5572
 Red. masses --     1.1854                 1.2836                 1.3019
 Frc consts  --     1.1644                 1.3173                 1.3909
 IR Inten    --     3.7940                 0.8612                 0.5718

                    49                     50                     51
                     A                      A                      A
 Frequencies --  1359.7508              1369.0925              1385.2089
 Red. masses --     1.3838                 1.3054                 1.2480
 Frc consts  --     1.5074                 1.4416                 1.4109
 IR Inten    --     3.8304                 5.6856                 4.6465

                    52                     53                     54
                     A                      A                      A
 Frequencies --  1388.2792              1396.9612              1403.2776
 Red. masses --     1.3667                 1.5295                 1.2255
 Frc consts  --     1.5519                 1.7586                 1.4218
 IR Inten    --     1.6987                 9.8239                 4.2615

                    55                     56                     57
                     A                      A                      A
 Frequencies --  1404.2627              1422.6060              1455.6874
 Red. masses --     1.2507                 1.2345                 1.1409
 Frc consts  --     1.4532                 1.4720                 1.4244
 IR Inten    --     6.0864                 4.3340                 1.4127

                    58                     59                     60
                     A                      A                      A
 Frequencies --  1471.4639              1486.8136              1490.7759
 Red. masses --     1.0854                 1.0780                 1.0458
 Frc consts  --     1.3847                 1.4041                 1.3694
 IR Inten    --     2.4218                 4.7588                 1.3205

                    61                     62                     63
                     A                      A                      A
 Frequencies --  1495.2364              1498.4867              1500.8004
 Red. masses --     1.0480                 1.0548                 1.0521
 Frc consts  --     1.3804                 1.3955                 1.3962
 IR Inten    --     7.1895                 4.2392                17.7701

                    64                     65                     66
                     A                      A                      A
 Frequencies --  1503.3642              1507.3778              1512.4590
 Red. masses --     1.0661                 1.0575                 1.0455
 Frc consts  --     1.4197                 1.4157                 1.4090
 IR Inten    --    10.0694                 3.2539                14.5037

                    67                     68                     69
                     A                      A                      A
 Frequencies --  3005.0755              3011.7094              3015.0135
 Red. masses --     1.0644                 1.0372                 1.0462
 Frc consts  --     5.6633                 5.5427                 5.6032
 IR Inten    --     9.4633                30.0723                21.3023

                    70                     71                     72
                     A                      A                      A
 Frequencies --  3017.0409              3021.7585              3029.2752
 Red. masses --     1.0367                 1.0629                 1.0739
 Frc consts  --     5.5601                 5.7185                 5.8060
 IR Inten    --    23.9322                17.5753                12.5437

                    73                     74                     75
                     A                      A                      A
 Frequencies --  3032.1948              3039.2251              3057.6956
 Red. masses --     1.0776                 1.0871                 1.0997
 Frc consts  --     5.8377                 5.9164                 6.0579
 IR Inten    --    24.2100                 2.9492                 0.7892

                    76                     77                     78
                     A                      A                      A
 Frequencies --  3067.5345              3067.7243              3071.2696
 Red. masses --     1.0734                 1.0777                 1.0991
 Frc consts  --     5.9508                 5.9755                 6.1081
 IR Inten    --     1.6027                36.4435                15.3323

                    79                     80                     81
                     A                      A                      A
 Frequencies --  3080.2771              3083.7370              3085.4448
 Red. masses --     1.0982                 1.1013                 1.1013
 Frc consts  --     6.1392                 6.1705                 6.1770
 IR Inten    --    75.3113                32.8427                45.0789

                    82                     83                     84
                     A                      A                      A
 Frequencies --  3087.2490              3090.3403              3158.3674
 Red. masses --     1.1009                 1.1018                 1.1116
 Frc consts  --     6.1823                 6.1994                 6.5335
 IR Inten    --    63.8043                31.4781                18.3249

 - Thermochemistry -
 -------------------
 Temperature   298.150 Kelvin.  Pressure   1.00000 Atm.
 Atom     1 has atomic number  6 and mass  12.00000

 Molecular mass:   159.13850 amu.
 Principal axes and moments of inertia in atomic units:
                           1         2         3
     Eigenvalues --   852.369953525.910813890.26069
           X            1.00000  -0.00243   0.00089
           Y            0.00239   0.99935   0.03595
           Z           -0.00098  -0.03595   0.99935
 This molecule is an asymmetric top.
 Rotational symmetry number  1.
 Warning -- assumption of classical behavior for rotation
           may cause significant error
 Rotational temperatures (Kelvin)      0.10162     0.02456     0.02226
 Rotational constants (GHZ):           2.11732     0.51185     0.46391
    1 imaginary frequencies ignored.
 Zero-point vibrational energy     689644.0 (Joules/Mol)
                                  164.82887 (Kcal/Mol)
 Warning -- explicit consideration of  20 degrees of freedom as
           vibrations may cause significant error
 Vibrational temperatures:     54.28    83.11   129.96   149.49   254.97
          (Kelvin)            323.14   330.09   336.33   358.68   385.84
                              434.56   496.40   511.73   534.18   585.40
                              615.22   652.79   703.48   810.33   879.02
                              908.44  1166.45  1172.76  1213.55  1255.70
                             1321.17  1340.11  1358.04  1373.43  1380.75
                             1388.63  1408.74  1434.96  1500.18  1509.84
                             1549.99  1591.81  1640.55  1678.80  1683.57
                             1697.25  1715.44  1794.75  1836.49  1857.79
                             1898.84  1937.39  1956.38  1969.82  1993.00
                             1997.42  2009.91  2019.00  2020.42  2046.81
                             2094.41  2117.11  2139.19  2144.89  2151.31
                             2155.99  2159.31  2163.00  2168.78  2176.09
                             4323.63  4333.17  4337.93  4340.84  4347.63
                             4358.45  4362.65  4372.76  4399.34  4413.49
                             4413.77  4418.87  4431.83  4436.80  4439.26
                             4441.86  4446.30  4544.18

 Zero-point correction=                           0.262672 (Hartree/Particle)
 Thermal correction to Energy=                    0.275800
 Thermal correction to Enthalpy=                  0.276744
 Thermal correction to Gibbs Free Energy=         0.222770
 Sum of electronic and zero-point Energies=           -504.570284
 Sum of electronic and thermal Energies=              -504.557156
 Sum of electronic and thermal Enthalpies=            -504.556212
 Sum of electronic and thermal Free Energies=         -504.610186

                     E (Thermal)             CV                S
                      KCal/Mol        Cal/Mol-Kelvin    Cal/Mol-Kelvin
 Total                  173.067             50.074            113.598
 Electronic               0.000              0.000              1.377
 Translational            0.889              2.981             41.103
 Rotational               0.889              2.981             30.837
 Vibrational            171.290             44.112             40.281
 Vibration     1          0.594              1.982              5.375
 Vibration     2          0.596              1.974              4.532
 Vibration     3          0.602              1.956              3.653
 Vibration     4          0.605              1.946              3.380
 Vibration     5          0.628              1.870              2.358
 Vibration     6          0.649              1.804              1.922
 Vibration     7          0.652              1.796              1.883
 Vibration     8          0.654              1.789              1.850
 Vibration     9          0.662              1.764              1.736
 Vibration    10          0.673              1.732              1.608
 Vibration    11          0.694              1.670              1.406
 Vibration    12          0.723              1.585              1.189
 Vibration    13          0.731              1.564              1.141
 Vibration    14          0.743              1.531              1.075
 Vibration    15          0.772              1.455              0.938
 Vibration    16          0.789              1.410              0.867
 Vibration    17          0.812              1.353              0.785
 Vibration    18          0.845              1.275              0.686
 Vibration    19          0.919              1.111              0.517
 Vibration    20          0.970              1.009              0.431

 Optimization completed.
    -- Stationary point found.
 Normal termination of Gaussian 09 at Thu Feb 20 02:21:19 2014.

 -----------------------------------------------------------
 #P Geom=AllCheck Guess=TCheck SCRF=Check CCSD(T)/6-31+G(d')
 -----------------------------------------------------------

 Structure from the checkpoint file:  TS_4_4a.chk
 ------------------------------------
 TS_4_4a using cbs-qb3 to cal. energy
 ------------------------------------
 Charge =  0 Multiplicity = 2

 SCF Done:  E(UHF) =  -501.411758960     A.U. after   21 cycles
 E2 =    -0.1585367597D+01 EUMP2 =    -0.50299712655754D+03
 CCSD(T)
 CCSD(T)= -0.50317111713D+03
 501\MP4SDQ=-503.1115067\CCSD=-503.1143544\CCSD(T)=-503.1711171\S2=0.79
 Normal termination of Gaussian 09 at Thu Feb 20 13:10:52 2014.

 -----------------------------------------------------
 #P Geom=AllCheck Guess=TCheck SCRF=Check MP4SDQ/CBSB4
 -----------------------------------------------------

 Structure from the checkpoint file:  TS_4_4a.chk
 ------------------------------------
 TS_4_4a using cbs-qb3 to cal. energy
 ------------------------------------
 Charge =  0 Multiplicity = 2

 SCF Done:  E(UHF) =  -501.442280244     A.U. after   18 cycles
 E2 =    -0.1712235477D+01 EUMP2 =    -0.50315451572136D+03
 Normal termination of Gaussian 09 at Thu Feb 20 13:35:34 2014.

 ----------------------------------------------------------------------
 #P Geom=AllCheck Guess=TCheck SCRF=Check MP2/CBSB3 CBSExtrap=(NMin=10,
 MinPop)
 ----------------------------------------------------------------------

 Structure from the checkpoint file:  TS_4_4a.chk
 ------------------------------------
 TS_4_4a using cbs-qb3 to cal. energy
 ------------------------------------
 Charge =  0 Multiplicity = 2

                         Standard orientation:
 ---------------------------------------------------------------------
 Center     Atomic      Atomic             Coordinates (Angstroms)
 Number     Number       Type             X           Y           Z
 ---------------------------------------------------------------------
      1          6           0       -3.726757    0.444764    0.902726
      2          1           0       -3.438226    1.354042    1.437536
      3          1           0       -3.909004   -0.337955    1.647979
      4          1           0       -4.674074    0.642411    0.392761
      5          6           0       -2.640290    0.015463   -0.092632
      6          1           0       -2.480968    0.839987   -0.796585
      7          6           0       -1.306567   -0.221643    0.639294
      8          1           0       -1.122049    0.600065    1.338770
      9          1           0       -1.374137   -1.138329    1.240329
     10          6           0        1.188672   -0.761420    0.496312
     11          1           0        1.132009   -1.848939    0.610571
     12          1           0        1.178854   -0.344574    1.509541
     13          6           0        2.521454   -0.381845   -0.192664
     14          1           0        2.393138   -0.494088   -1.274614
     15          6           0        2.895147    1.057501    0.095862
     16          1           0        3.139280    1.278091    1.136405
     17          1           0        3.546978    1.555513   -0.620311
     18          1           0        1.670467    1.728993   -0.037329
     19          6           0       -3.095749   -1.215635   -0.889491
     20          1           0       -3.263374   -2.070768   -0.224720
     21          1           0       -4.034666   -1.015100   -1.413367
     22          1           0       -2.363101   -1.516474   -1.643216
     23          6           0        3.661581   -1.321874    0.252053
     24          1           0        4.610421   -1.043759   -0.214143
     25          1           0        3.796807   -1.284383    1.337403
     26          1           0        3.438222   -2.356330   -0.026416
     27          6           0       -0.077131   -0.319589   -0.263212
     28          1           0       -0.254934   -1.017220   -1.088446
     29          8           0        0.133913    0.907053   -1.003474
     30          8           0        0.551861    1.929758   -0.121731
 ---------------------------------------------------------------------

 SCF Done:  E(UHF) =  -501.578962690     A.U. after   18 cycles
 E2 =    -0.2015914518D+01 EUMP2 =    -0.50359487720825D+03
 E2(CBS)=      -2.212462 CBS-Int=       0.065917 OIii=      17.328273

 The electronic state is 2-A.
 Alpha  occ. eigenvalues --  -20.61446 -20.60263 -11.28032 -11.25843 -11.24429
 Alpha  occ. eigenvalues --  -11.22924 -11.22739 -11.21818 -11.21304 -11.20652
 Alpha  occ. eigenvalues --  -11.20425  -1.47027  -1.20093  -1.11173  -1.08008
 Alpha  occ. eigenvalues --   -1.00326  -0.95773  -0.92781  -0.92325  -0.82691
 Alpha  occ. eigenvalues --   -0.77778  -0.76339  -0.71674  -0.68351  -0.65172
 Alpha  occ. eigenvalues --   -0.62521  -0.61945  -0.59146  -0.58858  -0.58405
 Alpha  occ. eigenvalues --   -0.56602  -0.56478  -0.54463  -0.53059  -0.52774
 Alpha  occ. eigenvalues --   -0.52011  -0.50232  -0.49467  -0.47974  -0.47418
 Alpha  occ. eigenvalues --   -0.46276  -0.45680  -0.44137  -0.42087  -0.39293
 Alpha virt. eigenvalues --    0.03706   0.04643   0.05017   0.05327   0.06275
 Alpha virt. eigenvalues --    0.06589   0.06837   0.07466   0.07855   0.08585
 Alpha virt. eigenvalues --    0.08903   0.09254   0.09467   0.09758   0.11313

  Beta  occ. eigenvalues --  -20.60372 -20.59267 -11.28036 -11.24610 -11.23801
  Beta  occ. eigenvalues --  -11.22862 -11.22575 -11.21818 -11.21305 -11.20652
  Beta  occ. eigenvalues --  -11.20425  -1.44549  -1.16509  -1.09737  -1.07785
  Beta  occ. eigenvalues --   -0.99709  -0.92821  -0.92330  -0.90836  -0.81944
  Beta  occ. eigenvalues --   -0.76935  -0.76076  -0.68095  -0.66000  -0.64661
  Beta  occ. eigenvalues --   -0.61812  -0.60977  -0.58581  -0.58514  -0.57226
  Beta  occ. eigenvalues --   -0.56040  -0.54419  -0.53161  -0.52729  -0.51944
  Beta  occ. eigenvalues --   -0.50819  -0.49904  -0.48957  -0.47508  -0.46100
  Beta  occ. eigenvalues --   -0.45739  -0.45140  -0.43584  -0.40808
  Beta virt. eigenvalues --    0.03578   0.04524   0.05010   0.05348   0.06035
  Beta virt. eigenvalues --    0.06459   0.06678   0.07251   0.07650   0.07908
  Beta virt. eigenvalues --    0.08742   0.08923   0.09267   0.09541   0.09893

 Mulliken atomic charges:
              1
     1  C   -0.427018
     2  H    0.060888
     3  H    0.048945
     4  H    0.097582
     5  C    0.838138
     6  H    0.073626
     7  C   -0.783437
     8  H    0.099904
     9  H    0.058564
    10  C   -0.648421
    11  H    0.063058
    12  H    0.117191
    13  C    1.027793
    14  H    0.081088
    15  C   -0.786009
    16  H    0.108612
    17  H    0.111254
    18  H    0.386551
    19  C   -0.549986
    20  H    0.062270
    21  H    0.082143
    22  H    0.056704
    23  C   -0.455398
    24  H    0.100092
    25  H    0.066371
    26  H    0.058612
    27  C    0.403824
    28  H    0.072457
    29  O   -0.092700
    30  O   -0.332699
 Sum of Mulliken atomic charges =   0.00000

 Dipole moment (field-independent basis, Debye):
    X=              2.0638    Y=             -2.2814    Z=              1.0004  Tot=              3.2349
 Quadrupole moment (field-independent basis, Debye-Ang):
   XX=            -64.7319   YY=            -75.3166   ZZ=            -72.7427
   XY=              1.3280   XZ=              0.4298   YZ=              1.9238

    1 imaginary frequencies ignored.
 Normal termination of Gaussian 09 at Thu Feb 20 14:45:23 2014.
