 Gaussian 09, Revision C.01,

 --------------------------------------------------
 #p stable=(opt,xqc) ub3lyp/6-311++g(d,p) guess=mix
 --------------------------------------------------

 (Enter /usr/caen/gaussian-09revc/g09/l101.exe)
 -----------------------------------------------------------------
 C9H18OOH_1_26_e using B3LYP/6-311++g(d,p) to do opt and cal. freq
 -----------------------------------------------------------------
 Charge =  0 Multiplicity = 2

 SCF Done:  E(UB3LYP) =  -504.823257034     A.U. after   16 cycles
 Normal termination of Gaussian 09 at Thu Feb  6 23:12:00 2014.
 Gaussian 09:  EM64L-G09RevC.01 23-Sep-2011

 -------------------------------------------------------------
 #p UB3LYP/6-311++G(d,p) opt=calcfc freq geom=check guess=read
 -------------------------------------------------------------

 ---------------------
 optimization and freq
 ---------------------
 Structure from the checkpoint file:  C9H18OOH_1_26_e.chk
 Charge =  0 Multiplicity = 2

 SCF Done:  E(UB3LYP) =  -504.823257034     A.U. after    2 cycles
 SCF Done:  E(UB3LYP) =  -504.842766219     A.U. after   15 cycles
 SCF Done:  E(UB3LYP) =  -504.847486354     A.U. after   15 cycles
 SCF Done:  E(UB3LYP) =  -504.836765871     A.U. after   16 cycles
 SCF Done:  E(UB3LYP) =  -504.839537563     A.U. after   13 cycles
 SCF Done:  E(UB3LYP) =  -504.841986768     A.U. after   11 cycles
 SCF Done:  E(UB3LYP) =  -504.844124044     A.U. after   11 cycles
 SCF Done:  E(UB3LYP) =  -504.847495244     A.U. after   13 cycles
 SCF Done:  E(UB3LYP) =  -504.848911698     A.U. after   13 cycles
 SCF Done:  E(UB3LYP) =  -504.851298823     A.U. after   14 cycles
 SCF Done:  E(UB3LYP) =  -504.851384993     A.U. after   13 cycles
 SCF Done:  E(UB3LYP) =  -504.851167332     A.U. after   13 cycles
 SCF Done:  E(UB3LYP) =  -504.851135475     A.U. after   13 cycles
 SCF Done:  E(UB3LYP) =  -504.851206018     A.U. after   13 cycles
 SCF Done:  E(UB3LYP) =  -504.851403847     A.U. after   13 cycles
 SCF Done:  E(UB3LYP) =  -504.851406918     A.U. after   10 cycles
 SCF Done:  E(UB3LYP) =  -504.851408108     A.U. after   10 cycles
 SCF Done:  E(UB3LYP) =  -504.851408365     A.U. after   10 cycles
 Optimization completed.
    -- Stationary point found.
 Normal termination of Gaussian 09 at Fri Feb  7 02:10:11 2014.

 ----------------------------------------------------------------------
 #P Geom=AllCheck Guess=TCheck SCRF=Check GenChk UB3LYP/6-311++G(d,p) F
 req
 ----------------------------------------------------------------------

 Structure from the checkpoint file:  C9H18OOH_1_26_e.chk
 ---------------------
 optimization and freq
 ---------------------
 Charge =  0 Multiplicity = 2

                         Standard orientation:
 ---------------------------------------------------------------------
 Center     Atomic      Atomic             Coordinates (Angstroms)
 Number     Number       Type             X           Y           Z
 ---------------------------------------------------------------------
      1          6           0       -3.330173   -1.361764   -0.112989
      2          1           0       -3.282656   -2.439790   -0.289070
      3          1           0       -3.523744   -0.868688   -1.068673
      4          1           0       -4.186189   -1.165537    0.539834
      5          6           0       -2.023839   -0.854484    0.510507
      6          1           0       -1.874893   -1.377867    1.466830
      7          6           0       -0.802541   -1.179268   -0.379091
      8          1           0       -0.887175   -2.241828   -0.671465
      9          1           0       -0.866592   -0.611886   -1.312976
     10          6           0        0.521900   -0.947387    0.270434
     11          1           0        0.645503   -1.264414    1.305110
     12          6           0        1.748006   -0.655351   -0.528877
     13          1           0        1.522322    0.119935   -1.276646
     14          1           0        2.020844   -1.547408   -1.123228
     15          6           0        2.981163   -0.228555    0.291733
     16          1           0        3.144527   -0.994539    1.062343
     17          6           0        4.234354   -0.176200   -0.591753
     18          1           0        4.116257    0.562466   -1.392415
     19          1           0        5.118038    0.104035   -0.010846
     20          1           0        4.434265   -1.144698   -1.059858
     21          6           0       -2.127816    0.628481    0.891371
     22          1           0       -2.900399    0.758735    1.657732
     23          1           0       -1.178269    1.009219    1.281019
     24          6           0        2.755370    1.114642    0.999071
     25          1           0        3.620695    1.389509    1.609751
     26          1           0        2.596011    1.914381    0.267035
     27          1           0        1.878817    1.083732    1.651343
     28          8           0       -2.594445    1.494299   -0.146878
     29          8           0       -1.490132    1.750408   -1.067161
     30          1           0       -1.459284    2.716306   -1.025931
 ---------------------------------------------------------------------

 SCF Done:  E(UB3LYP) =  -504.851408365     A.U. after    1 cycles

 The electronic state is 2-A.
 Alpha  occ. eigenvalues --  -19.18290 -19.18128 -10.22091 -10.17866 -10.17331
 Alpha  occ. eigenvalues --  -10.17064 -10.16478 -10.16405 -10.15591 -10.15585
 Alpha  occ. eigenvalues --  -10.15476  -1.12215  -0.92375  -0.82082  -0.80048
 Alpha  occ. eigenvalues --   -0.74564  -0.68308  -0.68045  -0.67614  -0.59525
 Alpha  occ. eigenvalues --   -0.56491  -0.55927  -0.52987  -0.49129  -0.46981
 Alpha  occ. eigenvalues --   -0.46348  -0.45304  -0.44135  -0.43409  -0.42101
 Alpha  occ. eigenvalues --   -0.40954  -0.38988  -0.38369  -0.38105  -0.37094
 Alpha  occ. eigenvalues --   -0.36398  -0.36051  -0.34856  -0.33624  -0.33085
 Alpha  occ. eigenvalues --   -0.32398  -0.31257  -0.30971  -0.26877  -0.18501
 Alpha virt. eigenvalues --   -0.01689  -0.00664  -0.00090   0.00670   0.00771
 Alpha virt. eigenvalues --    0.01723   0.02280   0.02501   0.03153   0.03922
 Alpha virt. eigenvalues --    0.04184   0.04447   0.05157   0.05808   0.06325

  Beta  occ. eigenvalues --  -19.18286 -19.18124 -10.22080 -10.17823 -10.17316
  Beta  occ. eigenvalues --  -10.16561 -10.16487 -10.15685 -10.15592 -10.15585
  Beta  occ. eigenvalues --  -10.15467  -1.12206  -0.92361  -0.81459  -0.79966
  Beta  occ. eigenvalues --   -0.73470  -0.68280  -0.67963  -0.67514  -0.58710
  Beta  occ. eigenvalues --   -0.56085  -0.55134  -0.52948  -0.49032  -0.46816
  Beta  occ. eigenvalues --   -0.45935  -0.45039  -0.43986  -0.42992  -0.41724
  Beta  occ. eigenvalues --   -0.40669  -0.38740  -0.38248  -0.37867  -0.36813
  Beta  occ. eigenvalues --   -0.36081  -0.35812  -0.34772  -0.33487  -0.32815
  Beta  occ. eigenvalues --   -0.32261  -0.31080  -0.30870  -0.26786
  Beta virt. eigenvalues --   -0.04701  -0.01687  -0.00605  -0.00085   0.00695
  Beta virt. eigenvalues --    0.00802   0.01755   0.02276   0.02526   0.03181
  Beta virt. eigenvalues --    0.03950   0.04199   0.04448   0.05164   0.05860

 Mulliken atomic charges:
              1
     1  C   -0.551271
     2  H    0.128057
     3  H    0.172323
     4  H    0.143977
     5  C    0.462384
     6  H    0.136753
     7  C   -0.557328
     8  H    0.160114
     9  H    0.179283
    10  C    0.346976
    11  H    0.180575
    12  C   -0.992381
    13  H    0.148675
    14  H    0.140949
    15  C    0.541861
    16  H    0.136464
    17  C   -0.623971
    18  H    0.136053
    19  H    0.145637
    20  H    0.131475
    21  C   -0.664172
    22  H    0.190821
    23  H    0.175333
    24  C   -0.679818
    25  H    0.139637
    26  H    0.136231
    27  H    0.141346
    28  O   -0.059627
    29  O   -0.206017
    30  H    0.259663
 Sum of Mulliken atomic charges =   0.00000

 Dipole moment (field-independent basis, Debye):
    X=              0.5950    Y=              0.2291    Z=              1.0900  Tot=              1.2628
 Quadrupole moment (field-independent basis, Debye-Ang):
   XX=            -75.9710   YY=            -67.5357   ZZ=            -71.9434
   XY=              1.0526   XZ=             -2.9678   YZ=             -0.9914

  Exact polarizability: 141.437   5.833 114.270  -4.380   1.003 110.765
 Approx polarizability: 166.538   3.220 158.980  -6.144  -3.692 166.589

                     1                      2                      3
                     A                      A                      A
 Frequencies --    25.8362                32.7465                48.5872
 Red. masses --     4.3601                 2.6411                 4.6004
 Frc consts  --     0.0017                 0.0017                 0.0064
 IR Inten    --     0.0019                 0.2897                 1.7881

                     4                      5                      6
                     A                      A                      A
 Frequencies --    79.6821                97.4420               151.9511
 Red. masses --     3.3522                 2.6945                 2.6703
 Frc consts  --     0.0125                 0.0151                 0.0363
 IR Inten    --     1.3046                 0.2467                 0.7759

                     7                      8                      9
                     A                      A                      A
 Frequencies --   189.1641               193.0658               199.9347
 Red. masses --     1.1514                 2.0509                 1.3488
 Frc consts  --     0.0243                 0.0450                 0.0318
 IR Inten    --   124.2644                 0.1541                 1.6302

                    10                     11                     12
                     A                      A                      A
 Frequencies --   217.0590               221.1560               245.8155
 Red. masses --     1.0723                 1.5812                 2.7249
 Frc consts  --     0.0298                 0.0456                 0.0970
 IR Inten    --     0.0598                 2.6305                 3.9009

                    13                     14                     15
                     A                      A                      A
 Frequencies --   253.5690               266.7767               344.3165
 Red. masses --     1.2969                 2.7873                 2.8031
 Frc consts  --     0.0491                 0.1169                 0.1958
 IR Inten    --     0.6822                 3.7155                 0.6807

                    16                     17                     18
                     A                      A                      A
 Frequencies --   367.9726               402.0801               439.6811
 Red. masses --     2.2828                 2.0780                 1.9270
 Frc consts  --     0.1821                 0.1979                 0.2195
 IR Inten    --     0.9943                 2.4207                 5.6455

                    19                     20                     21
                     A                      A                      A
 Frequencies --   449.6495               461.5346               508.3804
 Red. masses --     2.0419                 1.5430                 2.7125
 Frc consts  --     0.2432                 0.1937                 0.4130
 IR Inten    --     5.9559                 9.8274                 0.7266

                    22                     23                     24
                     A                      A                      A
 Frequencies --   618.1804               780.0537               818.3435
 Red. masses --     2.6669                 3.4763                 2.6397
 Frc consts  --     0.6005                 1.2463                 1.0415
 IR Inten    --     4.9408                 3.5949                 0.6327

                    25                     26                     27
                     A                      A                      A
 Frequencies --   833.5997               858.9599               899.4646
 Red. masses --     1.9954                 2.0651                 1.6777
 Frc consts  --     0.8169                 0.8977                 0.7997
 IR Inten    --    10.5925                 6.4538                 1.4647

                    28                     29                     30
                     A                      A                      A
 Frequencies --   930.9458               931.1383               944.7119
 Red. masses --     1.2439                 2.0272                 2.6202
 Frc consts  --     0.6352                 1.0356                 1.3778
 IR Inten    --     0.6440                 0.6147                 2.7484

                    31                     32                     33
                     A                      A                      A
 Frequencies --   948.5317               965.1357              1003.7478
 Red. masses --     1.7841                 1.5121                 2.2631
 Frc consts  --     0.9457                 0.8299                 1.3434
 IR Inten    --     1.0935                 0.1046                24.9350

                    34                     35                     36
                     A                      A                      A
 Frequencies --  1025.7843              1059.3082              1101.8448
 Red. masses --     2.4769                 1.6994                 1.7046
 Frc consts  --     1.5356                 1.1236                 1.2193
 IR Inten    --     1.8534                 7.3087                 0.4658

                    37                     38                     39
                     A                      A                      A
 Frequencies --  1117.4627              1132.9048              1143.9763
 Red. masses --     1.9651                 2.0283                 1.9655
 Frc consts  --     1.4457                 1.5338                 1.5155
 IR Inten    --     2.2432                 0.2680                 0.4653

                    40                     41                     42
                     A                      A                      A
 Frequencies --  1183.6171              1190.4515              1210.7290
 Red. masses --     2.1670                 1.8670                 1.3985
 Frc consts  --     1.7887                 1.5589                 1.2078
 IR Inten    --     3.3227                 3.7748                 1.4380

                    43                     44                     45
                     A                      A                      A
 Frequencies --  1245.1816              1259.5461              1295.7113
 Red. masses --     1.3061                 1.2510                 1.1326
 Frc consts  --     1.1932                 1.1693                 1.1203
 IR Inten    --     0.8376                 3.1569                 6.0984

                    46                     47                     48
                     A                      A                      A
 Frequencies --  1322.8937              1352.2002              1360.8630
 Red. masses --     1.2644                 1.3046                 1.3436
 Frc consts  --     1.3037                 1.4054                 1.4661
 IR Inten    --     1.2112                16.9293                 0.9448

                    49                     50                     51
                     A                      A                      A
 Frequencies --  1362.9252              1364.9337              1386.3049
 Red. masses --     1.3501                 1.3651                 1.4471
 Frc consts  --     1.4776                 1.4984                 1.6386
 IR Inten    --    20.5192                 2.2476                 0.7390

                    52                     53                     54
                     A                      A                      A
 Frequencies --  1392.5821              1400.4314              1414.4825
 Red. masses --     1.2442                 1.2669                 1.4362
 Frc consts  --     1.4216                 1.4639                 1.6930
 IR Inten    --    18.6640                 8.6550                19.0954

                    55                     56                     57
                     A                      A                      A
 Frequencies --  1419.4700              1424.2415              1455.1194
 Red. masses --     1.2482                 1.5058                 1.0875
 Frc consts  --     1.4818                 1.7996                 1.3566
 IR Inten    --     0.7758                 3.3380                 7.0753

                    58                     59                     60
                     A                      A                      A
 Frequencies --  1460.2588              1472.8888              1487.6216
 Red. masses --     1.0779                 1.0780                 1.0411
 Frc consts  --     1.3542                 1.3779                 1.3574
 IR Inten    --     0.8003                 4.6167                 0.4287

                    61                     62                     63
                     A                      A                      A
 Frequencies --  1492.0755              1495.4100              1502.3979
 Red. masses --     1.0555                 1.0421                 1.0502
 Frc consts  --     1.3844                 1.3731                 1.3967
 IR Inten    --     4.0927                 9.0340                 8.5256

                    64                     65                     66
                     A                      A                      A
 Frequencies --  1503.6721              1509.6179              2901.6729
 Red. masses --     1.0573                 1.0522                 1.0728
 Frc consts  --     1.4085                 1.4128                 5.3218
 IR Inten    --     6.9813                11.8310                30.1891

                    67                     68                     69
                     A                      A                      A
 Frequencies --  2908.9422              2976.5773              2977.9989
 Red. masses --     1.0732                 1.0798                 1.0812
 Frc consts  --     5.3503                 5.6368                 5.6493
 IR Inten    --    68.9237                 5.7858                16.9455

                    70                     71                     72
                     A                      A                      A
 Frequencies --  2993.8982              3011.6339              3016.5056
 Red. masses --     1.0847                 1.0357                 1.0369
 Frc consts  --     5.7282                 5.5349                 5.5592
 IR Inten    --    32.5094                33.6272                32.6415

                    73                     74                     75
                     A                      A                      A
 Frequencies --  3022.0293              3026.8403              3054.6693
 Red. masses --     1.0523                 1.0413                 1.0840
 Frc consts  --     5.6622                 5.6210                 5.9597
 IR Inten    --    41.4046                24.8940                 9.3480

                    76                     77                     78
                     A                      A                      A
 Frequencies --  3069.7522              3070.0682              3075.9210
 Red. masses --     1.1005                 1.1073                 1.0998
 Frc consts  --     6.1100                 6.1490                 6.1310
 IR Inten    --     6.4399                24.8885                69.3307

                    79                     80                     81
                     A                      A                      A
 Frequencies --  3081.2173              3083.9130              3087.5523
 Red. masses --     1.1016                 1.1012                 1.1005
 Frc consts  --     6.1620                 6.1703                 6.1810
 IR Inten    --    38.1567                38.7560                42.6127

                    82                     83                     84
                     A                      A                      A
 Frequencies --  3099.0946              3114.9075              3778.0026
 Red. masses --     1.1013                 1.0860                 1.0686
 Frc consts  --     6.2321                 6.2081                 8.9868
 IR Inten    --    22.6451                31.8527                44.9463

 - Thermochemistry -
 -------------------
 Temperature   298.150 Kelvin.  Pressure   1.00000 Atm.
 Atom     1 has atomic number  6 and mass  12.00000

 Molecular mass:   159.13850 amu.
 Principal axes and moments of inertia in atomic units:
                           1         2         3
     Eigenvalues --  1024.054323863.897294316.70276
           X            0.99978   0.02060  -0.00383
           Y           -0.02044   0.99909   0.03739
           Z            0.00460  -0.03730   0.99929
 This molecule is an asymmetric top.
 Rotational symmetry number  1.
 Warning -- assumption of classical behavior for rotation
           may cause significant error
 Rotational temperatures (Kelvin)      0.08458     0.02242     0.02006
 Rotational constants (GHZ):           1.76235     0.46708     0.41808
 Zero-point vibrational energy     697586.3 (Joules/Mol)
                                  166.72712 (Kcal/Mol)
 Warning -- explicit consideration of  22 degrees of freedom as
           vibrations may cause significant error
 Vibrational temperatures:     37.17    47.11    69.91   114.64   140.20
          (Kelvin)            218.62   272.16   277.78   287.66   312.30
                              318.19   353.67   364.83   383.83   495.39
                              529.43   578.50   632.60   646.94   664.04
                              731.45   889.42  1122.32  1177.41  1199.36
                             1235.85  1294.13  1339.42  1339.70  1359.23
                             1364.72  1388.61  1444.17  1475.87  1524.11
                             1585.31  1607.78  1630.00  1645.92  1702.96
                             1712.79  1741.97  1791.54  1812.20  1864.24
                             1903.35  1945.51  1957.98  1960.94  1963.83
                             1994.58  2003.61  2014.91  2035.12  2042.30
                             2049.16  2093.59  2100.98  2119.16  2140.35
                             2146.76  2151.56  2161.61  2163.45  2172.00
                             4174.85  4185.31  4282.63  4284.67  4307.55
                             4333.06  4340.07  4348.02  4354.94  4394.98
                             4416.68  4417.14  4425.56  4433.18  4437.06
                             4442.29  4458.90  4481.65  5435.70

 Zero-point correction=                           0.265697 (Hartree/Particle)
 Thermal correction to Energy=                    0.280653
 Thermal correction to Enthalpy=                  0.281597
 Thermal correction to Gibbs Free Energy=         0.222122
 Sum of electronic and zero-point Energies=           -504.585712
 Sum of electronic and thermal Energies=              -504.570755
 Sum of electronic and thermal Enthalpies=            -504.569811
 Sum of electronic and thermal Free Energies=         -504.629287

                     E (Thermal)             CV                S
                      KCal/Mol        Cal/Mol-Kelvin    Cal/Mol-Kelvin
 Total                  176.113             53.379            125.178
 Electronic               0.000              0.000              1.377
 Translational            0.889              2.981             41.103
 Rotational               0.889              2.981             31.213
 Vibrational            174.335             47.418             51.484
 Vibration     1          0.593              1.985              6.126
 Vibration     2          0.594              1.983              5.656
 Vibration     3          0.595              1.978              4.874
 Vibration     4          0.600              1.963              3.899
 Vibration     5          0.603              1.951              3.505
 Vibration     6          0.619              1.901              2.648
 Vibration     7          0.633              1.855              2.236
 Vibration     8          0.635              1.849              2.198
 Vibration     9          0.638              1.840              2.134
 Vibration    10          0.646              1.815              1.983
 Vibration    11          0.648              1.809              1.950
 Vibration    12          0.660              1.770              1.760
 Vibration    13          0.665              1.757              1.706
 Vibration    14          0.672              1.734              1.617
 Vibration    15          0.723              1.587              1.192
 Vibration    16          0.741              1.538              1.088
 Vibration    17          0.768              1.466              0.955
 Vibration    18          0.800              1.384              0.828
 Vibration    19          0.809              1.362              0.797
 Vibration    20          0.819              1.335              0.762
 Vibration    21          0.864              1.231              0.638
 Vibration    22          0.978              0.993              0.419

 Normal termination of Gaussian 09 at Fri Feb  7 02:48:25 2014.
