 Gaussian 09, Revision C.01,

 --------------------------------------------------
 #p stable=(opt,xqc) ub3lyp/6-311++g(d,p) guess=mix
 --------------------------------------------------

 (Enter /usr/caen/gaussian-09revc/g09/l101.exe)
 -----------------------------------------------------------------
 C9H18OOH_1_26_d using B3LYP/6-311++g(d,p) to do opt and cal. freq
 -----------------------------------------------------------------
 Charge =  0 Multiplicity = 2

 SCF Done:  E(UB3LYP) =  -504.823828819     A.U. after   16 cycles
 Normal termination of Gaussian 09 at Thu Feb  6 22:05:31 2014.
 Gaussian 09:  EM64L-G09RevC.01 23-Sep-2011

 -------------------------------------------------------------
 #p UB3LYP/6-311++G(d,p) opt=calcfc freq geom=check guess=read
 -------------------------------------------------------------

 ---------------------
 optimization and freq
 ---------------------
 Structure from the checkpoint file:  C9H18OOH_1_26_d.chk
 Charge =  0 Multiplicity = 2

 SCF Done:  E(UB3LYP) =  -504.823828819     A.U. after    2 cycles
 SCF Done:  E(UB3LYP) =  -504.842657335     A.U. after   15 cycles
 SCF Done:  E(UB3LYP) =  -504.845710725     A.U. after   13 cycles
 SCF Done:  E(UB3LYP) =  -504.846123374     A.U. after   17 cycles
 SCF Done:  E(UB3LYP) =  -504.849078375     A.U. after   15 cycles
 SCF Done:  E(UB3LYP) =  -504.849972596     A.U. after   13 cycles
 SCF Done:  E(UB3LYP) =  -504.849953407     A.U. after   16 cycles
 SCF Done:  E(UB3LYP) =  -504.850356415     A.U. after   16 cycles
 SCF Done:  E(UB3LYP) =  -504.850403326     A.U. after   14 cycles
 SCF Done:  E(UB3LYP) =  -504.850414827     A.U. after   11 cycles
 SCF Done:  E(UB3LYP) =  -504.850406007     A.U. after   12 cycles
 SCF Done:  E(UB3LYP) =  -504.850418717     A.U. after   12 cycles
 SCF Done:  E(UB3LYP) =  -504.850418828     A.U. after   10 cycles
 SCF Done:  E(UB3LYP) =  -504.850418849     A.U. after    7 cycles
 Optimization completed.
    -- Stationary point found.
 Normal termination of Gaussian 09 at Thu Feb  6 23:11:21 2014.

 ----------------------------------------------------------------------
 #P Geom=AllCheck Guess=TCheck SCRF=Check GenChk UB3LYP/6-311++G(d,p) F
 req
 ----------------------------------------------------------------------

 Structure from the checkpoint file:  C9H18OOH_1_26_d.chk
 ---------------------
 optimization and freq
 ---------------------
 Charge =  0 Multiplicity = 2

                         Standard orientation:
 ---------------------------------------------------------------------
 Center     Atomic      Atomic             Coordinates (Angstroms)
 Number     Number       Type             X           Y           Z
 ---------------------------------------------------------------------
      1          6           0       -2.935479   -1.844659   -0.287406
      2          1           0       -2.484520   -2.815728   -0.504488
      3          1           0       -3.218176   -1.379401   -1.234584
      4          1           0       -3.850797   -2.015251    0.287502
      5          6           0       -1.950796   -0.950898    0.481693
      6          1           0       -1.719203   -1.434703    1.445363
      7          6           0       -0.662115   -0.762478   -0.257749
      8          1           0       -0.694402   -0.770315   -1.343652
      9          6           0        0.571353   -0.247308    0.407131
     10          1           0        0.651943   -0.669837    1.419929
     11          1           0        0.483139    0.842409    0.551931
     12          6           0        1.859182   -0.547916   -0.377123
     13          1           0        1.792503   -0.079283   -1.368129
     14          1           0        1.910397   -1.628524   -0.554250
     15          6           0        3.165430   -0.098011    0.303368
     16          1           0        3.185002   -0.540873    1.309133
     17          6           0        4.381649   -0.634109   -0.465353
     18          1           0        4.409662   -0.228358   -1.482842
     19          1           0        5.317876   -0.355854    0.027844
     20          1           0        4.355086   -1.725050   -0.543578
     21          6           0       -2.630106    0.377661    0.899251
     22          1           0       -3.505681    0.158572    1.521502
     23          1           0       -1.946434    1.016213    1.468191
     24          6           0        3.258205    1.426975    0.458491
     25          1           0        4.200132    1.713967    0.935656
     26          1           0        3.218559    1.919442   -0.519791
     27          1           0        2.445663    1.830437    1.067650
     28          8           0       -3.198865    1.125513   -0.170781
     29          8           0       -2.108621    1.770181   -0.898160
     30          1           0       -2.434798    2.681028   -0.905676
 ---------------------------------------------------------------------

 SCF Done:  E(UB3LYP) =  -504.850418849     A.U. after    1 cycles

 The electronic state is 2-A.
 Alpha  occ. eigenvalues --  -19.18570 -19.18302 -10.22652 -10.18077 -10.17192
 Alpha  occ. eigenvalues --  -10.16824 -10.16543 -10.16083 -10.15617 -10.15522
 Alpha  occ. eigenvalues --  -10.15489  -1.12504  -0.92703  -0.81987  -0.79988
 Alpha  occ. eigenvalues --   -0.74839  -0.68275  -0.67946  -0.66799  -0.60672
 Alpha  occ. eigenvalues --   -0.56193  -0.55592  -0.53133  -0.49250  -0.47196
 Alpha  occ. eigenvalues --   -0.46932  -0.44926  -0.43795  -0.43513  -0.42194
 Alpha  occ. eigenvalues --   -0.40802  -0.39892  -0.38371  -0.37699  -0.36966
 Alpha  occ. eigenvalues --   -0.36122  -0.35441  -0.34809  -0.33996  -0.32652
 Alpha  occ. eigenvalues --   -0.32091  -0.31761  -0.31276  -0.27175  -0.18375
 Alpha virt. eigenvalues --   -0.01750  -0.00628  -0.00107   0.00650   0.00670
 Alpha virt. eigenvalues --    0.01736   0.02156   0.02313   0.03498   0.03728
 Alpha virt. eigenvalues --    0.04130   0.04242   0.05305   0.05695   0.05900

  Beta  occ. eigenvalues --  -19.18562 -19.18283 -10.22520 -10.18163 -10.17191
  Beta  occ. eigenvalues --  -10.16623 -10.16054 -10.15595 -10.15518 -10.15488
  Beta  occ. eigenvalues --  -10.15443  -1.12481  -0.92642  -0.81490  -0.79478
  Beta  occ. eigenvalues --   -0.74496  -0.68265  -0.67785  -0.65798  -0.60365
  Beta  occ. eigenvalues --   -0.55819  -0.54755  -0.52993  -0.49042  -0.46935
  Beta  occ. eigenvalues --   -0.46675  -0.44607  -0.43615  -0.43328  -0.41834
  Beta  occ. eigenvalues --   -0.40584  -0.39666  -0.38349  -0.37454  -0.36706
  Beta  occ. eigenvalues --   -0.35955  -0.35253  -0.34576  -0.33664  -0.32435
  Beta  occ. eigenvalues --   -0.32044  -0.31586  -0.31011  -0.26905
  Beta virt. eigenvalues --   -0.04696  -0.01719  -0.00616  -0.00050   0.00664
  Beta virt. eigenvalues --    0.00715   0.01740   0.02260   0.02314   0.03526
  Beta virt. eigenvalues --    0.03761   0.04175   0.04269   0.05323   0.05719

 Mulliken atomic charges:
              1
     1  C   -0.534609
     2  H    0.136491
     3  H    0.176926
     4  H    0.139149
     5  C    0.536568
     6  H    0.171529
     7  C    0.045642
     8  H    0.211599
     9  C   -0.751094
    10  H    0.148561
    11  H    0.089866
    12  C   -0.527987
    13  H    0.132412
    14  H    0.118772
    15  C    0.486717
    16  H    0.132226
    17  C   -0.627042
    18  H    0.135579
    19  H    0.148414
    20  H    0.131778
    21  C   -0.645238
    22  H    0.194707
    23  H    0.173901
    24  C   -0.653949
    25  H    0.140035
    26  H    0.142618
    27  H    0.141913
    28  O   -0.071782
    29  O   -0.194571
    30  H    0.270870
 Sum of Mulliken atomic charges =   0.00000

 Dipole moment (field-independent basis, Debye):
    X=              0.1023    Y=              0.7605    Z=              1.3223  Tot=              1.5288
 Quadrupole moment (field-independent basis, Debye-Ang):
   XX=            -74.7992   YY=            -67.8251   ZZ=            -71.5484
   XY=             -1.4237   XZ=             -2.8678   YZ=             -1.2752

  Exact polarizability: 142.383   4.725 117.960  -3.792   0.519 109.055
 Approx polarizability: 167.024   4.279 161.955  -5.129  -4.084 164.991

                     1                      2                      3
                     A                      A                      A
 Frequencies --    29.6682                32.7081                61.3077
 Red. masses --     2.7321                 4.5684                 4.4953
 Frc consts  --     0.0014                 0.0029                 0.0100
 IR Inten    --     0.0804                 0.0482                 2.1627

                     4                      5                      6
                     A                      A                      A
 Frequencies --    74.1657               104.5869               109.7191
 Red. masses --     2.6501                 2.2238                 2.9009
 Frc consts  --     0.0086                 0.0143                 0.0206
 IR Inten    --     0.1360                 0.0243                 0.1854

                     7                      8                      9
                     A                      A                      A
 Frequencies --   159.1037               175.1533               202.3678
 Red. masses --     1.9854                 1.2053                 1.1677
 Frc consts  --     0.0296                 0.0218                 0.0282
 IR Inten    --    17.5452               103.5592                 0.6532

                    10                     11                     12
                     A                      A                      A
 Frequencies --   220.2625               230.1500               243.4083
 Red. masses --     2.4880                 1.1567                 2.8905
 Frc consts  --     0.0711                 0.0361                 0.1009
 IR Inten    --     0.2211                 0.3547                 3.3748

                    13                     14                     15
                     A                      A                      A
 Frequencies --   247.8109               261.4434               343.7559
 Red. masses --     2.2926                 1.1405                 2.5178
 Frc consts  --     0.0830                 0.0459                 0.1753
 IR Inten    --     3.8598                 0.1521                 1.2287

                    16                     17                     18
                     A                      A                      A
 Frequencies --   375.0067               396.3088               444.4805
 Red. masses --     2.4577                 1.9930                 1.9555
 Frc consts  --     0.2036                 0.1844                 0.2276
 IR Inten    --     1.6498                 1.2440                 1.8224

                    19                     20                     21
                     A                      A                      A
 Frequencies --   450.4493               475.0312               511.0583
 Red. masses --     2.0456                 2.3397                 2.6633
 Frc consts  --     0.2445                 0.3111                 0.4098
 IR Inten    --     5.5623                11.4335                 3.3958

                    22                     23                     24
                     A                      A                      A
 Frequencies --   655.9532               752.9337               793.0100
 Red. masses --     2.6623                 1.4184                 2.6976
 Frc consts  --     0.6749                 0.4738                 0.9995
 IR Inten    --    10.7576                 2.0314                 3.2548

                    25                     26                     27
                     A                      A                      A
 Frequencies --   828.1082               856.4640               922.1299
 Red. masses --     2.5991                 4.2960                 1.9198
 Frc consts  --     1.0501                 1.8567                 0.9618
 IR Inten    --     0.3704                18.3565                 0.9155

                    28                     29                     30
                     A                      A                      A
 Frequencies --   929.4330               942.9789               950.4339
 Red. masses --     1.2117                 1.9648                 1.8583
 Frc consts  --     0.6167                 1.0294                 0.9890
 IR Inten    --     1.1893                 2.6032                 1.0473

                    31                     32                     33
                     A                      A                      A
 Frequencies --   960.3001               968.9214               998.2630
 Red. masses --     1.4757                 1.8313                 1.9481
 Frc consts  --     0.8018                 1.0129                 1.1438
 IR Inten    --     0.0492                 0.2495                29.2801

                    34                     35                     36
                     A                      A                      A
 Frequencies --  1033.9624              1047.1129              1093.2208
 Red. masses --     3.2814                 2.2745                 1.4718
 Frc consts  --     2.0669                 1.4693                 1.0364
 IR Inten    --     0.4965                10.8866                 0.0296

                    37                     38                     39
                     A                      A                      A
 Frequencies --  1104.2496              1119.5594              1162.4153
 Red. masses --     2.3637                 1.9201                 2.0930
 Frc consts  --     1.6982                 1.4180                 1.6663
 IR Inten    --     0.9718                 2.1684                 0.8215

                    40                     41                     42
                     A                      A                      A
 Frequencies --  1186.2035              1191.4760              1225.4913
 Red. masses --     1.9871                 1.8744                 1.5306
 Frc consts  --     1.6473                 1.5678                 1.3544
 IR Inten    --     1.1403                 4.9380                 2.5261

                    43                     44                     45
                     A                      A                      A
 Frequencies --  1258.1118              1282.2216              1292.8862
 Red. masses --     1.2932                 1.1936                 1.2747
 Frc consts  --     1.2061                 1.1562                 1.2554
 IR Inten    --     0.2654                 4.5906                 1.6755

                    46                     47                     48
                     A                      A                      A
 Frequencies --  1311.9293              1321.7951              1355.2779
 Red. masses --     1.2424                 1.1610                 1.3622
 Frc consts  --     1.2599                 1.1951                 1.4742
 IR Inten    --     1.7529                 0.9772                12.0457

                    49                     50                     51
                     A                      A                      A
 Frequencies --  1362.4278              1369.4856              1384.4788
 Red. masses --     1.1554                 1.3326                 1.4040
 Frc consts  --     1.2635                 1.4725                 1.5855
 IR Inten    --    24.8631                 3.7642                 8.6687

                    52                     53                     54
                     A                      A                      A
 Frequencies --  1390.8493              1401.1641              1410.7373
 Red. masses --     1.3337                 1.2554                 1.3458
 Frc consts  --     1.5201                 1.4522                 1.5781
 IR Inten    --    17.1219                 8.3588                12.9462

                    55                     56                     57
                     A                      A                      A
 Frequencies --  1420.7093              1423.8961              1457.6018
 Red. masses --     1.2712                 1.5946                 1.0834
 Frc consts  --     1.5118                 1.9048                 1.3562
 IR Inten    --     2.3563                 6.6360                 4.6340

                    58                     59                     60
                     A                      A                      A
 Frequencies --  1469.1811              1486.5884              1491.1368
 Red. masses --     1.0723                 1.0693                 1.0440
 Frc consts  --     1.3637                 1.3924                 1.3677
 IR Inten    --     0.5357                 0.5347                 1.2063

                    61                     62                     63
                     A                      A                      A
 Frequencies --  1495.4936              1498.6143              1501.8595
 Red. masses --     1.0421                 1.0700                 1.0556
 Frc consts  --     1.3732                 1.4159                 1.4029
 IR Inten    --     9.1027                 2.7315                 6.1779

                    64                     65                     66
                     A                      A                      A
 Frequencies --  1505.7858              1512.3902              2938.7005
 Red. masses --     1.0537                 1.0490                 1.0681
 Frc consts  --     1.4076                 1.4137                 5.4348
 IR Inten    --     4.9648                15.9904                19.3466

                    67                     68                     69
                     A                      A                      A
 Frequencies --  2946.5994              2978.6694              2981.8885
 Red. masses --     1.0808                 1.0858                 1.0808
 Frc consts  --     5.5289                 5.6763                 5.6619
 IR Inten    --    25.2783                14.8910                13.8030

                    70                     71                     72
                     A                      A                      A
 Frequencies --  3001.2331              3011.1885              3017.3036
 Red. masses --     1.0605                 1.0363                 1.0382
 Frc consts  --     5.6278                 5.5360                 5.5689
 IR Inten    --    34.0217                38.3364                35.6837

                    73                     74                     75
                     A                      A                      A
 Frequencies --  3019.1146              3027.8902              3039.1486
 Red. masses --     1.0556                 1.0371                 1.1021
 Frc consts  --     5.6689                 5.6020                 5.9976
 IR Inten    --    43.7762                29.1199                37.1342

                    76                     77                     78
                     A                      A                      A
 Frequencies --  3067.7578              3069.4484              3076.0839
 Red. masses --     1.1077                 1.1006                 1.0999
 Frc consts  --     6.1423                 6.1095                 6.1318
 IR Inten    --    29.8771                 5.7450                78.0288

                    79                     80                     81
                     A                      A                      A
 Frequencies --  3080.6409              3088.4533              3088.5167
 Red. masses --     1.1016                 1.0999                 1.0999
 Frc consts  --     6.1598                 6.1816                 6.1814
 IR Inten    --    46.3880                66.8523                 9.0999

                    82                     83                     84
                     A                      A                      A
 Frequencies --  3103.3722              3147.9172              3775.1699
 Red. masses --     1.1023                 1.0870                 1.0685
 Frc consts  --     6.2549                 6.3467                 8.9721
 IR Inten    --    20.4078                14.2874                45.8294

 - Thermochemistry -
 -------------------
 Temperature   298.150 Kelvin.  Pressure   1.00000 Atm.
 Atom     1 has atomic number  6 and mass  12.00000

 Molecular mass:   159.13850 amu.
 Principal axes and moments of inertia in atomic units:
                           1         2         3
     Eigenvalues --   950.791244396.086524921.10568
           X            0.99986   0.01586  -0.00435
           Y           -0.01573   0.99945   0.02928
           Z            0.00482  -0.02921   0.99956
 This molecule is an asymmetric top.
 Rotational symmetry number  1.
 Warning -- assumption of classical behavior for rotation
           may cause significant error
 Rotational temperatures (Kelvin)      0.09110     0.01970     0.01760
 Rotational constants (GHZ):           1.89815     0.41053     0.36673
 Zero-point vibrational energy     698226.1 (Joules/Mol)
                                  166.88004 (Kcal/Mol)
 Warning -- explicit consideration of  21 degrees of freedom as
           vibrations may cause significant error
 Vibrational temperatures:     42.69    47.06    88.21   106.71   150.48
          (Kelvin)            157.86   228.91   252.01   291.16   316.91
                              331.13   350.21   356.54   376.16   494.59
                              539.55   570.20   639.51   648.10   683.46
                              735.30   943.77  1083.30  1140.96  1191.46
                             1232.26  1326.74  1337.25  1356.73  1367.46
                             1381.66  1394.06  1436.28  1487.64  1506.56
                             1572.90  1588.77  1610.79  1672.45  1706.68
                             1714.27  1763.21  1810.14  1844.83  1860.17
                             1887.57  1901.77  1949.94  1960.23  1970.38
                             1991.95  2001.12  2015.96  2029.73  2044.08
                             2048.67  2097.16  2113.82  2138.87  2145.41
                             2151.68  2156.17  2160.84  2166.49  2175.99
                             4228.13  4239.49  4285.64  4290.27  4318.10
                             4332.42  4341.22  4343.83  4356.45  4372.65
                             4413.81  4416.25  4425.79  4432.35  4443.59
                             4443.68  4465.05  4529.15  5431.62

 Zero-point correction=                           0.265940 (Hartree/Particle)
 Thermal correction to Energy=                    0.280983
 Thermal correction to Enthalpy=                  0.281927
 Thermal correction to Gibbs Free Energy=         0.222231
 Sum of electronic and zero-point Energies=           -504.584479
 Sum of electronic and thermal Energies=              -504.569436
 Sum of electronic and thermal Enthalpies=            -504.568491
 Sum of electronic and thermal Free Energies=         -504.628188

                     E (Thermal)             CV                S
                      KCal/Mol        Cal/Mol-Kelvin    Cal/Mol-Kelvin
 Total                  176.320             53.384            125.642
 Electronic               0.000              0.000              1.377
 Translational            0.889              2.981             41.103
 Rotational               0.889              2.981             31.398
 Vibrational            174.542             47.422             51.763
 Vibration     1          0.593              1.984              5.851
 Vibration     2          0.594              1.983              5.658
 Vibration     3          0.597              1.973              4.415
 Vibration     4          0.599              1.966              4.040
 Vibration     5          0.605              1.946              3.367
 Vibration     6          0.606              1.941              3.274
 Vibration     7          0.621              1.892              2.560
 Vibration     8          0.627              1.873              2.379
 Vibration     9          0.639              1.837              2.111
 Vibration    10          0.647              1.810              1.957
 Vibration    11          0.652              1.795              1.878
 Vibration    12          0.659              1.774              1.778
 Vibration    13          0.661              1.766              1.746
 Vibration    14          0.669              1.743              1.652
 Vibration    15          0.723              1.588              1.195
 Vibration    16          0.746              1.523              1.059
 Vibration    17          0.763              1.478              0.976
 Vibration    18          0.804              1.373              0.813
 Vibration    19          0.809              1.360              0.794
 Vibration    20          0.832              1.305              0.724
 Vibration    21          0.866              1.225              0.631

 Optimization completed.
    -- Stationary point found.
 Normal termination of Gaussian 09 at Thu Feb  6 23:39:26 2014.
