 Gaussian 09, Revision C.01,

 --------------------------------------------------
 #p stable=(opt,xqc) ub3lyp/6-311++g(d,p) guess=mix
 --------------------------------------------------

 (Enter /usr/caen/gaussian-09revc/g09/l101.exe)
 -----------------------------------------------------------------
 C9H18OOH_1_26_f using B3LYP/6-311++g(d,p) to do opt and cal. freq
 -----------------------------------------------------------------
 Charge =  0 Multiplicity = 2

 SCF Done:  E(UB3LYP) =  -504.823447151     A.U. after   19 cycles
 Normal termination of Gaussian 09 at Thu Feb  6 23:32:30 2014.
 Gaussian 09:  EM64L-G09RevC.01 23-Sep-2011

 -------------------------------------------------------------
 #p UB3LYP/6-311++G(d,p) opt=calcfc freq geom=check guess=read
 -------------------------------------------------------------

 ---------------------
 optimization and freq
 ---------------------
 Structure from the checkpoint file:  C9H18OOH_1_26_f.chk
 Charge =  0 Multiplicity = 2

 SCF Done:  E(UB3LYP) =  -504.823447151     A.U. after    2 cycles
 SCF Done:  E(UB3LYP) =  -504.842895614     A.U. after   16 cycles
 SCF Done:  E(UB3LYP) =  -504.847534094     A.U. after   15 cycles
 SCF Done:  E(UB3LYP) =  -504.834488605     A.U. after   21 cycles
 SCF Done:  E(UB3LYP) =  -504.837443016     A.U. after   13 cycles
 SCF Done:  E(UB3LYP) =  -504.840093083     A.U. after   13 cycles
 SCF Done:  E(UB3LYP) =  -504.842458210     A.U. after   13 cycles
 SCF Done:  E(UB3LYP) =  -504.844529487     A.U. after   12 cycles
 SCF Done:  E(UB3LYP) =  -504.847544702     A.U. after   13 cycles
 SCF Done:  E(UB3LYP) =  -504.849704111     A.U. after   12 cycles
 SCF Done:  E(UB3LYP) =  -504.849865744     A.U. after   13 cycles
 SCF Done:  E(UB3LYP) =  -504.849741202     A.U. after   15 cycles
 SCF Done:  E(UB3LYP) =  -504.849987064     A.U. after   15 cycles
 SCF Done:  E(UB3LYP) =  -504.849994432     A.U. after   11 cycles
 SCF Done:  E(UB3LYP) =  -504.849998345     A.U. after   10 cycles
 SCF Done:  E(UB3LYP) =  -504.849999908     A.U. after   11 cycles
 SCF Done:  E(UB3LYP) =  -504.849999736     A.U. after   10 cycles
 SCF Done:  E(UB3LYP) =  -504.849999717     A.U. after    9 cycles
 Optimization completed.
    -- Stationary point found.
 Normal termination of Gaussian 09 at Fri Feb  7 01:16:35 2014.

 ----------------------------------------------------------------------
 #P Geom=AllCheck Guess=TCheck SCRF=Check GenChk UB3LYP/6-311++G(d,p) F
 req
 ----------------------------------------------------------------------

 Structure from the checkpoint file:  C9H18OOH_1_26_f.chk
 ---------------------
 optimization and freq
 ---------------------
 Charge =  0 Multiplicity = 2

                         Standard orientation:
 ---------------------------------------------------------------------
 Center     Atomic      Atomic             Coordinates (Angstroms)
 Number     Number       Type             X           Y           Z
 ---------------------------------------------------------------------
      1          6           0       -3.050686   -1.765995   -0.243768
      2          1           0       -2.690572   -2.779025   -0.441792
      3          1           0       -3.306647   -1.303735   -1.200341
      4          1           0       -3.970273   -1.845987    0.344305
      5          6           0       -1.983821   -0.941936    0.491760
      6          1           0       -1.775125   -1.436092    1.452957
      7          6           0       -0.666282   -0.909248   -0.307005
      8          1           0       -0.409864   -1.941866   -0.570280
      9          1           0       -0.828343   -0.379297   -1.250531
     10          6           0        0.531035   -0.286338    0.427284
     11          1           0        0.666422   -0.777712    1.402776
     12          1           0        0.300310    0.766419    0.660991
     13          6           0        1.806305   -0.362173   -0.346973
     14          1           0        1.747735   -0.346409   -1.433768
     15          6           0        3.146526   -0.139698    0.286358
     16          1           0        3.132625   -0.604922    1.282793
     17          6           0        4.274218   -0.791631   -0.529515
     18          1           0        4.323422   -0.359954   -1.534990
     19          1           0        5.246983   -0.636930   -0.053105
     20          1           0        4.114519   -1.867843   -0.635523
     21          6           0       -2.537800    0.436461    0.878830
     22          1           0       -3.434536    0.306405    1.495467
     23          1           0       -1.816154    1.030153    1.447799
     24          6           0        3.435136    1.367713    0.499192
     25          1           0        4.394660    1.511430    1.006977
     26          1           0        3.477890    1.891291   -0.461063
     27          1           0        2.658693    1.840839    1.105926
     28          8           0       -3.031905    1.220460   -0.210509
     29          8           0       -1.891145    1.844690   -0.876694
     30          1           0       -2.175137    2.769101   -0.857959
 ---------------------------------------------------------------------

 SCF Done:  E(UB3LYP) =  -504.849999717     A.U. after    1 cycles

 The electronic state is 2-A.
 Alpha  occ. eigenvalues --  -19.18465 -19.18320 -10.22335 -10.17791 -10.17488
 Alpha  occ. eigenvalues --  -10.16772 -10.16539 -10.16036 -10.15856 -10.15611
 Alpha  occ. eigenvalues --  -10.15529  -1.12381  -0.92569  -0.81965  -0.79977
 Alpha  occ. eigenvalues --   -0.74851  -0.68285  -0.67861  -0.66898  -0.60489
 Alpha  occ. eigenvalues --   -0.56786  -0.55236  -0.53241  -0.49479  -0.47081
 Alpha  occ. eigenvalues --   -0.46169  -0.45028  -0.44082  -0.42826  -0.42241
 Alpha  occ. eigenvalues --   -0.40975  -0.39889  -0.38578  -0.37920  -0.36834
 Alpha  occ. eigenvalues --   -0.36062  -0.35566  -0.34670  -0.33897  -0.33088
 Alpha  occ. eigenvalues --   -0.32619  -0.31394  -0.31329  -0.26704  -0.18435
 Alpha virt. eigenvalues --   -0.01758  -0.00701  -0.00094   0.00618   0.00682
 Alpha virt. eigenvalues --    0.01717   0.02156   0.02351   0.03448   0.03799
 Alpha virt. eigenvalues --    0.04080   0.04429   0.05325   0.05686   0.05915

  Beta  occ. eigenvalues --  -19.18465 -19.18318 -10.22332 -10.17791 -10.17567
  Beta  occ. eigenvalues --  -10.16618 -10.16010 -10.15727 -10.15610 -10.15498
  Beta  occ. eigenvalues --  -10.15395  -1.12380  -0.92566  -0.81339  -0.79624
  Beta  occ. eigenvalues --   -0.74457  -0.68100  -0.67838  -0.65921  -0.60049
  Beta  occ. eigenvalues --   -0.56687  -0.54184  -0.53226  -0.49444  -0.46970
  Beta  occ. eigenvalues --   -0.45799  -0.44859  -0.43829  -0.42217  -0.41982
  Beta  occ. eigenvalues --   -0.40836  -0.39745  -0.38455  -0.37674  -0.36706
  Beta  occ. eigenvalues --   -0.35858  -0.35342  -0.34204  -0.33617  -0.32976
  Beta  occ. eigenvalues --   -0.32358  -0.31342  -0.31063  -0.26690
  Beta virt. eigenvalues --   -0.04711  -0.01757  -0.00684  -0.00060   0.00644
  Beta virt. eigenvalues --    0.00703   0.01760   0.02184   0.02401   0.03473
  Beta virt. eigenvalues --    0.03886   0.04114   0.04443   0.05329   0.05697

 Mulliken atomic charges:
              1
     1  C   -0.568181
     2  H    0.130715
     3  H    0.175334
     4  H    0.142493
     5  C    0.612274
     6  H    0.142162
     7  C   -0.495061
     8  H    0.134841
     9  H    0.179942
    10  C   -0.724999
    11  H    0.148198
    12  H    0.069998
    13  C    0.067386
    14  H    0.182396
    15  C    0.298275
    16  H    0.157398
    17  C   -0.550001
    18  H    0.138722
    19  H    0.147005
    20  H    0.131588
    21  C   -0.647369
    22  H    0.196841
    23  H    0.185707
    24  C   -0.675231
    25  H    0.136093
    26  H    0.143098
    27  H    0.143771
    28  O   -0.069309
    29  O   -0.202900
    30  H    0.268815
 Sum of Mulliken atomic charges =   0.00000

 Dipole moment (field-independent basis, Debye):
    X=             -0.0005    Y=              0.6923    Z=              1.4061  Tot=              1.5673
 Quadrupole moment (field-independent basis, Debye-Ang):
   XX=            -74.9637   YY=            -67.5207   ZZ=            -71.7386
   XY=             -0.6124   XZ=             -2.8467   YZ=             -0.9400

  Exact polarizability: 142.209   5.873 117.921  -3.069   0.861 108.594
 Approx polarizability: 167.096   4.801 161.286  -4.356  -3.594 163.948

                     1                      2                      3
                     A                      A                      A
 Frequencies --    15.5769                29.1018                50.8063
 Red. masses --     2.7222                 4.0687                 4.2441
 Frc consts  --     0.0004                 0.0020                 0.0065
 IR Inten    --     0.0426                 0.0735                 1.6862

                     4                      5                      6
                     A                      A                      A
 Frequencies --    79.6426                88.0468               118.1691
 Red. masses --     2.7855                 3.5323                 2.1780
 Frc consts  --     0.0104                 0.0161                 0.0179
 IR Inten    --     0.4788                 0.6865                 0.0915

                     7                      8                      9
                     A                      A                      A
 Frequencies --   178.3078               189.1561               212.3308
 Red. masses --     2.5125                 1.1486                 1.3304
 Frc consts  --     0.0471                 0.0242                 0.0353
 IR Inten    --     3.6180               114.9689                 0.7793

                    10                     11                     12
                     A                      A                      A
 Frequencies --   220.3469               223.2060               237.7004
 Red. masses --     2.0095                 1.0385                 2.3510
 Frc consts  --     0.0575                 0.0305                 0.0783
 IR Inten    --     1.0402                 0.0625                 4.2279

                    13                     14                     15
                     A                      A                      A
 Frequencies --   250.6843               257.0575               325.5116
 Red. masses --     2.2368                 1.2783                 1.6854
 Frc consts  --     0.0828                 0.0498                 0.1052
 IR Inten    --     3.8104                 1.2346                 3.5301

                    16                     17                     18
                     A                      A                      A
 Frequencies --   347.6605               389.7755               424.6768
 Red. masses --     2.6126                 2.5215                 2.5193
 Frc consts  --     0.1861                 0.2257                 0.2677
 IR Inten    --     0.8043                 4.8665                 4.5036

                    19                     20                     21
                     A                      A                      A
 Frequencies --   455.0817               502.2360               521.6923
 Red. masses --     1.9375                 2.7883                 2.1893
 Frc consts  --     0.2364                 0.4144                 0.3511
 IR Inten    --     3.6670                 5.0768                 8.4766

                    22                     23                     24
                     A                      A                      A
 Frequencies --   617.8562               755.4354               792.7335
 Red. masses --     2.4318                 1.4990                 2.4922
 Frc consts  --     0.5470                 0.5040                 0.9228
 IR Inten    --     3.5103                 4.3768                 5.3044

                    25                     26                     27
                     A                      A                      A
 Frequencies --   833.7694               851.4802               920.8517
 Red. masses --     2.6232                 3.8637                 1.8255
 Frc consts  --     1.0744                 1.6504                 0.9120
 IR Inten    --     0.0473                16.2194                 1.1844

                    28                     29                     30
                     A                      A                      A
 Frequencies --   926.5863               938.3984               945.4344
 Red. masses --     1.2311                 2.4727                 1.5990
 Frc consts  --     0.6227                 1.2829                 0.8421
 IR Inten    --     1.0570                 0.5579                 1.8943

                    31                     32                     33
                     A                      A                      A
 Frequencies --   955.7810               967.8208              1003.4574
 Red. masses --     1.5796                 1.8623                 2.4464
 Frc consts  --     0.8502                 1.0278                 1.4513
 IR Inten    --     1.6983                 0.7460                26.2427

                    34                     35                     36
                     A                      A                      A
 Frequencies --  1035.5494              1061.7653              1089.6381
 Red. masses --     3.2321                 1.5899                 2.1880
 Frc consts  --     2.0421                 1.0560                 1.5306
 IR Inten    --     2.3420                 4.8881                 3.3319

                    37                     38                     39
                     A                      A                      A
 Frequencies --  1104.9410              1130.5738              1144.1662
 Red. masses --     2.0629                 1.8811                 1.8096
 Frc consts  --     1.4839                 1.4166                 1.3958
 IR Inten    --     1.1355                 1.3462                 1.0933

                    40                     41                     42
                     A                      A                      A
 Frequencies --  1180.0979              1189.8108              1201.0593
 Red. masses --     1.8644                 1.8178                 1.6434
 Frc consts  --     1.5297                 1.5162                 1.3968
 IR Inten    --     0.6810                 4.2998                 1.7105

                    43                     44                     45
                     A                      A                      A
 Frequencies --  1260.2639              1288.6667              1307.0741
 Red. masses --     1.2958                 1.1518                 1.1861
 Frc consts  --     1.2126                 1.1269                 1.1939
 IR Inten    --     2.3577                 6.8582                 0.9208

                    46                     47                     48
                     A                      A                      A
 Frequencies --  1316.5603              1326.3967              1354.5559
 Red. masses --     1.2621                 1.2611                 1.3265
 Frc consts  --     1.2889                 1.3072                 1.4340
 IR Inten    --     0.2207                 2.4986                17.9417

                    49                     50                     51
                     A                      A                      A
 Frequencies --  1361.1226              1370.9227              1386.6546
 Red. masses --     1.1956                 1.3843                 1.2555
 Frc consts  --     1.3051                 1.5328                 1.4224
 IR Inten    --    16.0110                10.2298                 1.6598

                    52                     53                     54
                     A                      A                      A
 Frequencies --  1393.4335              1396.5628              1406.9254
 Red. masses --     1.2440                 1.4633                 1.3861
 Frc consts  --     1.4231                 1.6815                 1.6166
 IR Inten    --    20.5379                 4.1104                 3.9124

                    55                     56                     57
                     A                      A                      A
 Frequencies --  1417.1613              1423.6427              1461.4383
 Red. masses --     1.2474                 1.5261                 1.0893
 Frc consts  --     1.4761                 1.8224                 1.3708
 IR Inten    --    10.2329                 3.4687                 8.1223

                    58                     59                     60
                     A                      A                      A
 Frequencies --  1468.2694              1487.2198              1488.0320
 Red. masses --     1.0724                 1.0470                 1.0461
 Frc consts  --     1.3622                 1.3644                 1.3648
 IR Inten    --     0.3592                 0.2804                 3.0592

                    61                     62                     63
                     A                      A                      A
 Frequencies --  1492.4849              1498.4785              1500.4936
 Red. masses --     1.0807                 1.0446                 1.0514
 Frc consts  --     1.4183                 1.3819                 1.3947
 IR Inten    --     1.9279                 9.6752                 8.6924

                    64                     65                     66
                     A                      A                      A
 Frequencies --  1506.5226              1508.7520              2937.4268
 Red. masses --     1.0601                 1.0594                 1.0679
 Frc consts  --     1.4175                 1.4208                 5.4289
 IR Inten    --     9.1106                10.2118                18.3821

                    67                     68                     69
                     A                      A                      A
 Frequencies --  2972.0498              2974.3162              2978.4413
 Red. masses --     1.0850                 1.0816                 1.0834
 Frc consts  --     5.6468                 5.6375                 5.6624
 IR Inten    --     2.7196                 1.8126                68.2022

                    70                     71                     72
                     A                      A                      A
 Frequencies --  3011.9540              3016.9370              3019.7461
 Red. masses --     1.0347                 1.0354                 1.0585
 Frc consts  --     5.5303                 5.5524                 5.6869
 IR Inten    --    32.0535                36.9731                19.9900

                    73                     74                     75
                     A                      A                      A
 Frequencies --  3023.6257              3028.4420              3068.1815
 Red. masses --     1.0476                 1.0522                 1.0985
 Frc consts  --     5.6426                 5.6855                 6.0925
 IR Inten    --    57.9137                24.3392                18.6835

                    76                     77                     78
                     A                      A                      A
 Frequencies --  3071.3536              3072.1670              3078.1186
 Red. masses --     1.1064                 1.1017                 1.1007
 Frc consts  --     6.1493                 6.1261                 6.1445
 IR Inten    --    29.5295                 0.9285                75.3165

                    79                     80                     81
                     A                      A                      A
 Frequencies --  3083.4343              3087.2128              3088.6444
 Red. masses --     1.1006                 1.1018                 1.1013
 Frc consts  --     6.1652                 6.1871                 6.1898
 IR Inten    --    40.3391                28.7767                40.3614

                    82                     83                     84
                     A                      A                      A
 Frequencies --  3098.4378              3126.3616              3780.0095
 Red. masses --     1.1016                 1.0865                 1.0686
 Frc consts  --     6.2312                 6.2567                 8.9959
 IR Inten    --    26.7915                24.3804                49.3856

 - Thermochemistry -
 -------------------
 Temperature   298.150 Kelvin.  Pressure   1.00000 Atm.
 Atom     1 has atomic number  6 and mass  12.00000

 Molecular mass:   159.13850 amu.
 Principal axes and moments of inertia in atomic units:
                           1         2         3
     Eigenvalues --   978.788404292.185934841.53429
           X            0.99984   0.01755  -0.00360
           Y           -0.01744   0.99939   0.03032
           Z            0.00413  -0.03026   0.99953
 This molecule is an asymmetric top.
 Rotational symmetry number  1.
 Warning -- assumption of classical behavior for rotation
           may cause significant error
 Rotational temperatures (Kelvin)      0.08849     0.02018     0.01789
 Rotational constants (GHZ):           1.84385     0.42047     0.37276
 Zero-point vibrational energy     698035.8 (Joules/Mol)
                                  166.83455 (Kcal/Mol)
 Warning -- explicit consideration of  22 degrees of freedom as
           vibrations may cause significant error
 Vibrational temperatures:     22.41    41.87    73.10   114.59   126.68
          (Kelvin)            170.02   256.54   272.15   305.50   317.03
                              321.14   342.00   360.68   369.85   468.34
                              500.21   560.80   611.01   654.76   722.60
                              750.60   888.96  1086.90  1140.57  1199.61
                             1225.09  1324.90  1333.15  1350.14  1360.27
                             1375.15  1392.48  1443.75  1489.92  1527.64
                             1567.74  1589.76  1626.64  1646.20  1697.90
                             1711.87  1728.05  1813.24  1854.10  1880.59
                             1894.23  1908.39  1948.90  1958.35  1972.45
                             1995.08  2004.84  2009.34  2024.25  2038.98
                             2048.30  2102.68  2112.51  2139.77  2140.94
                             2147.35  2155.97  2158.87  2167.55  2170.75
                             4226.30  4276.11  4279.37  4285.31  4333.52
                             4340.69  4344.74  4350.32  4357.25  4414.42
                             4418.99  4420.16  4428.72  4436.37  4441.81
                             4443.86  4457.96  4498.13  5438.58

 Zero-point correction=                           0.265868 (Hartree/Particle)
 Thermal correction to Energy=                    0.280989
 Thermal correction to Enthalpy=                  0.281933
 Thermal correction to Gibbs Free Energy=         0.221368
 Sum of electronic and zero-point Energies=           -504.584132
 Sum of electronic and thermal Energies=              -504.569011
 Sum of electronic and thermal Enthalpies=            -504.568067
 Sum of electronic and thermal Free Energies=         -504.628631

                     E (Thermal)             CV                S
                      KCal/Mol        Cal/Mol-Kelvin    Cal/Mol-Kelvin
 Total                  176.323             53.508            127.469
 Electronic               0.000              0.000              1.377
 Translational            0.889              2.981             41.103
 Rotational               0.889              2.981             31.387
 Vibrational            174.546             47.547             53.602
 Vibration     1          0.593              1.986              7.131
 Vibration     2          0.593              1.984              5.890
 Vibration     3          0.595              1.977              4.786
 Vibration     4          0.600              1.963              3.900
 Vibration     5          0.601              1.958              3.703
 Vibration     6          0.608              1.934              3.130
 Vibration     7          0.629              1.869              2.346
 Vibration     8          0.633              1.855              2.236
 Vibration     9          0.643              1.822              2.024
 Vibration    10          0.647              1.810              1.956
 Vibration    11          0.649              1.806              1.933
 Vibration    12          0.656              1.783              1.820
 Vibration    13          0.663              1.762              1.726
 Vibration    14          0.667              1.751              1.682
 Vibration    15          0.710              1.624              1.282
 Vibration    16          0.725              1.580              1.177
 Vibration    17          0.758              1.492              1.001
 Vibration    18          0.787              1.417              0.876
 Vibration    19          0.813              1.350              0.781
 Vibration    20          0.858              1.245              0.653
 Vibration    21          0.877              1.202              0.606
 Vibration    22          0.978              0.994              0.420

 Normal termination of Gaussian 09 at Fri Feb  7 01:52:24 2014.
