 Gaussian 09, Revision C.01,
 Gaussian 09:  EM64L-G09RevC.01 23-Sep-2011

 ----------------------------
 #p freq ub3lyp/6-311++g(d,p)
 ----------------------------

 (Enter /usr/caen/gaussian-09revc/g09/l101.exe)
 --------------------------------------------------------
 TS_1_1d using B3LYP/6-311++g(d,p) to find TS | reactants
 --------------------------------------------------------
 Charge =  0 Multiplicity = 2

                         Standard orientation:
 ---------------------------------------------------------------------
 Center     Atomic      Atomic             Coordinates (Angstroms)
 Number     Number       Type             X           Y           Z
 ---------------------------------------------------------------------
      1          6           0       -3.200963   -1.596732   -0.146023
      2          1           0       -2.858204   -2.621280   -0.312449
      3          1           0       -3.476229   -1.168750   -1.113047
      4          1           0       -4.102776   -1.640572    0.471381
      5          6           0       -2.108207   -0.756792    0.527870
      6          1           0       -1.873947   -1.188508    1.512820
      7          6           0       -0.830553   -0.701131   -0.294959
      8          1           0       -0.812905   -1.379109   -1.151030
      9          1           0       -1.030613    0.518555   -0.885142
     10          6           0        0.490375   -0.575715    0.429101
     11          1           0        0.671341   -1.509610    0.986705
     12          1           0        0.415602    0.213269    1.185621
     13          6           0        1.680275   -0.311751   -0.503855
     14          1           0        1.536126    0.651367   -1.010077
     15          1           0        1.678446   -1.074422   -1.292575
     16          6           0        3.060468   -0.317705    0.179906
     17          1           0        3.162766   -1.273037    0.713793
     18          6           0        4.177655   -0.248042   -0.870823
     19          1           0        4.119840    0.685811   -1.440721
     20          1           0        5.165326   -0.289505   -0.402357
     21          1           0        4.109508   -1.076369   -1.582418
     22          6           0       -2.612750    0.684589    0.815644
     23          1           0       -3.603022    0.672561    1.277617
     24          1           0       -1.912345    1.230929    1.455515
     25          6           0        3.213379    0.815248    1.205211
     26          1           0        4.205417    0.792387    1.665542
     27          1           0        3.092358    1.792392    0.724749
     28          1           0        2.477640    0.746130    2.010295
     29          8           0       -2.781250    1.384417   -0.410006
     30          8           0       -1.491550    1.611326   -0.948326
 ---------------------------------------------------------------------

 SCF Done:  E(UB3LYP) =  -504.838761247     A.U. after   18 cycles

 The electronic state is 2-A.
 Alpha  occ. eigenvalues --  -19.19076 -19.17612 -10.23284 -10.19808 -10.19567
 Alpha  occ. eigenvalues --  -10.18149 -10.17892 -10.17085 -10.17010 -10.16020
 Alpha  occ. eigenvalues --  -10.15989  -1.13448  -0.89439  -0.83877  -0.81196
 Alpha  occ. eigenvalues --   -0.75907  -0.69445  -0.68799  -0.67567  -0.61613
 Alpha  occ. eigenvalues --   -0.59440  -0.56461  -0.52722  -0.50064  -0.47929
 Alpha  occ. eigenvalues --   -0.47224  -0.45989  -0.44514  -0.43983  -0.43228
 Alpha  occ. eigenvalues --   -0.41971  -0.40100  -0.38944  -0.38575  -0.37761
 Alpha  occ. eigenvalues --   -0.37317  -0.37029  -0.36047  -0.35183  -0.33303
 Alpha  occ. eigenvalues --   -0.32997  -0.32706  -0.32052  -0.26895  -0.22401
 Alpha virt. eigenvalues --   -0.01402  -0.00477   0.00017   0.00629   0.01578
 Alpha virt. eigenvalues --    0.01776   0.02178   0.02552   0.03610   0.03860
 Alpha virt. eigenvalues --    0.04007   0.04412   0.05357   0.05593   0.05896

  Beta  occ. eigenvalues --  -19.18840 -19.16447 -10.23231 -10.19817 -10.18698
  Beta  occ. eigenvalues --  -10.18173 -10.17892 -10.17076 -10.17006 -10.16020
  Beta  occ. eigenvalues --  -10.15990  -1.12238  -0.87673  -0.83200  -0.80957
  Beta  occ. eigenvalues --   -0.75645  -0.69132  -0.68795  -0.66877  -0.61260
  Beta  occ. eigenvalues --   -0.58282  -0.56400  -0.51474  -0.49752  -0.47648
  Beta  occ. eigenvalues --   -0.46680  -0.45528  -0.44211  -0.43792  -0.42542
  Beta  occ. eigenvalues --   -0.40919  -0.39874  -0.38872  -0.37991  -0.37496
  Beta  occ. eigenvalues --   -0.36822  -0.36089  -0.35622  -0.34905  -0.32965
  Beta  occ. eigenvalues --   -0.32861  -0.31996  -0.31472  -0.25452
  Beta virt. eigenvalues --   -0.11422  -0.01365  -0.00469   0.00049   0.00671
  Beta virt. eigenvalues --    0.01627   0.01841   0.02305   0.02778   0.03642
  Beta virt. eigenvalues --    0.03901   0.04075   0.04468   0.05492   0.05640

 Mulliken atomic charges:
              1
     1  C   -0.598348
     2  H    0.136575
     3  H    0.185941
     4  H    0.145446
     5  C    0.502220
     6  H    0.186718
     7  C   -0.532530
     8  H    0.247695
     9  H    0.368921
    10  C   -0.549948
    11  H    0.135301
    12  H    0.155677
    13  C   -0.379941
    14  H    0.129324
    15  H    0.123590
    16  C    0.467948
    17  H    0.136687
    18  C   -0.611466
    19  H    0.141422
    20  H    0.152929
    21  H    0.129572
    22  C   -0.663497
    23  H    0.197860
    24  H    0.184293
    25  C   -0.640868
    26  H    0.140810
    27  H    0.145800
    28  H    0.132714
    29  O   -0.008621
    30  O   -0.162223
 Sum of Mulliken atomic charges =   0.00000

 Dipole moment (field-independent basis, Debye):
    X=              0.7839    Y=             -2.8388    Z=              2.1453  Tot=              3.6436
 Quadrupole moment (field-independent basis, Debye-Ang):
   XX=            -72.4042   YY=            -76.4062   ZZ=            -72.5705
   XY=              5.1017   XZ=             -5.3690   YZ=              3.3695

  Exact polarizability: 149.155  -4.396 119.577  -3.509  -0.452 110.412
 Approx polarizability: 178.813 -12.609 181.997  -4.066  -8.617 165.366

 ******    1 imaginary frequencies (negative Signs) ******

                     1                      2                      3
                     A                      A                      A
 Frequencies -- -1685.6578                28.3938                40.8247
 Red. masses --     1.1065                 2.7365                 3.9215
 Frc consts  --     1.8524                 0.0013                 0.0039
 IR Inten    --   452.4925                 0.5114                 0.5547

                     4                      5                      6
                     A                      A                      A
 Frequencies --    83.9683               100.4256               116.9667
 Red. masses --     3.5293                 3.2422                 1.9913
 Frc consts  --     0.0147                 0.0193                 0.0161
 IR Inten    --     1.3218                 0.5933                 0.3418

                     7                      8                      9
                     A                      A                      A
 Frequencies --   161.6690               218.6361               222.0146
 Red. masses --     2.8603                 1.1974                 1.0641
 Frc consts  --     0.0440                 0.0337                 0.0309
 IR Inten    --     1.4055                 0.0486                 0.0403

                    10                     11                     12
                     A                      A                      A
 Frequencies --   230.1690               247.3368               257.7987
 Red. masses --     2.3384                 2.2697                 1.2380
 Frc consts  --     0.0730                 0.0818                 0.0485
 IR Inten    --     0.8531                 0.7312                 0.2632

                    13                     14                     15
                     A                      A                      A
 Frequencies --   300.8289               372.9546               388.1915
 Red. masses --     3.6163                 2.7750                 2.2837
 Frc consts  --     0.1928                 0.2274                 0.2028
 IR Inten    --     2.5056                 0.6107                 0.5664

                    16                     17                     18
                     A                      A                      A
 Frequencies --   426.1929               461.1634               479.5364
 Red. masses --     2.1234                 2.2093                 3.5252
 Frc consts  --     0.2272                 0.2768                 0.4776
 IR Inten    --     0.8994                 2.1340                 1.0419

                    19                     20                     21
                     A                      A                      A
 Frequencies --   495.7229               578.1477               679.9357
 Red. masses --     2.8671                 3.7335                 2.5151
 Frc consts  --     0.4151                 0.7353                 0.6851
 IR Inten    --     1.0022                 1.3337                 4.1765

                    22                     23                     24
                     A                      A                      A
 Frequencies --   733.5567               789.0721               831.2619
 Red. masses --     1.1498                 2.4937                 2.4820
 Frc consts  --     0.3645                 0.9148                 1.0105
 IR Inten    --     8.8472                 2.0721                 3.5946

                    25                     26                     27
                     A                      A                      A
 Frequencies --   836.5306               898.5007               926.9649
 Red. masses --     1.5475                 3.5853                 1.3916
 Frc consts  --     0.6381                 1.7054                 0.7045
 IR Inten    --     1.1428                24.2957                 3.4011

                    28                     29                     30
                     A                      A                      A
 Frequencies --   932.2487               947.1151               962.4438
 Red. masses --     1.6547                 1.6952                 1.4990
 Frc consts  --     0.8473                 0.8959                 0.8181
 IR Inten    --     2.0942                 5.1964                 0.6597

                    31                     32                     33
                     A                      A                      A
 Frequencies --   964.8775               992.0246              1000.4747
 Red. masses --     1.9624                 1.6077                 2.9394
 Frc consts  --     1.0764                 0.9322                 1.7335
 IR Inten    --    10.5591                 3.8104                 2.3144

                    34                     35                     36
                     A                      A                      A
 Frequencies --  1032.9385              1050.5273              1072.3926
 Red. masses --     3.2436                 2.0329                 1.9423
 Frc consts  --     2.0391                 1.3219                 1.3160
 IR Inten    --     1.1040                 5.8599                 4.6818

                    37                     38                     39
                     A                      A                      A
 Frequencies --  1099.1238              1137.9222              1151.5302
 Red. masses --     1.8941                 1.6668                 1.3654
 Frc consts  --     1.3481                 1.2717                 1.0667
 IR Inten    --     1.7061                 1.1581                 2.9367

                    40                     41                     42
                     A                      A                      A
 Frequencies --  1170.4687              1182.8388              1191.5023
 Red. masses --     2.2085                 1.5989                 1.7863
 Frc consts  --     1.7826                 1.3180                 1.4942
 IR Inten    --     0.2523                 6.2524                 5.6221

                    43                     44                     45
                     A                      A                      A
 Frequencies --  1230.0175              1251.2018              1264.1431
 Red. masses --     1.5207                 1.3942                 1.2861
 Frc consts  --     1.3555                 1.2859                 1.2110
 IR Inten    --     1.3543                10.5745                12.9204

                    46                     47                     48
                     A                      A                      A
 Frequencies --  1285.3385              1314.9179              1321.5681
 Red. masses --     1.2184                 1.2077                 1.2305
 Frc consts  --     1.1860                 1.2302                 1.2663
 IR Inten    --     2.1032                 0.9864                 0.4176

                    49                     50                     51
                     A                      A                      A
 Frequencies --  1350.9728              1370.1510              1371.2076
 Red. masses --     1.3778                 1.3082                 1.2683
 Frc consts  --     1.4816                 1.4470                 1.4050
 IR Inten    --     4.6544                 4.8970                 4.1630

                    52                     53                     54
                     A                      A                      A
 Frequencies --  1385.6130              1398.7841              1403.9667
 Red. masses --     1.5122                 1.4444                 1.3705
 Frc consts  --     1.7106                 1.6651                 1.5917
 IR Inten    --     4.7976                 3.9560                 7.1387

                    55                     56                     57
                     A                      A                      A
 Frequencies --  1414.3692              1422.1328              1467.5089
 Red. masses --     1.2369                 1.2370                 1.0804
 Frc consts  --     1.4578                 1.4740                 1.3709
 IR Inten    --     6.5174                 6.5628                 0.5584

                    58                     59                     60
                     A                      A                      A
 Frequencies --  1474.4001              1486.8664              1490.6737
 Red. masses --     1.0804                 1.0670                 1.0518
 Frc consts  --     1.3838                 1.3898                 1.3771
 IR Inten    --     4.1462                 1.3050                 0.8727

                    61                     62                     63
                     A                      A                      A
 Frequencies --  1497.5745              1499.3353              1502.4049
 Red. masses --     1.0660                 1.0455                 1.0482
 Frc consts  --     1.4086                 1.3847                 1.3940
 IR Inten    --     4.2217                 6.5330                 8.0772

                    64                     65                     66
                     A                      A                      A
 Frequencies --  1506.1232              1511.4612              1563.1346
 Red. masses --     1.0535                 1.0501                 1.0576
 Frc consts  --     1.4080                 1.4135                 1.5225
 IR Inten    --     6.2526                15.6434                15.9307

                    67                     68                     69
                     A                      A                      A
 Frequencies --  2950.4684              2971.0270              2982.3652
 Red. masses --     1.0717                 1.0816                 1.0821
 Frc consts  --     5.4967                 5.6251                 5.6707
 IR Inten    --    14.8123                22.5673                15.9667

                    70                     71                     72
                     A                      A                      A
 Frequencies --  3000.6378              3013.3585              3019.3097
 Red. masses --     1.0589                 1.0360                 1.0379
 Frc consts  --     5.6174                 5.5428                 5.5746
 IR Inten    --    24.2508                36.2434                22.6748

                    73                     74                     75
                     A                      A                      A
 Frequencies --  3026.6749              3027.3624              3031.9489
 Red. masses --     1.0748                 1.0485                 1.0626
 Frc consts  --     5.8013                 5.6615                 5.7555
 IR Inten    --    17.6312                19.9006                30.0834

                    76                     77                     78
                     A                      A                      A
 Frequencies --  3045.4513              3072.6928              3078.8668
 Red. masses --     1.0961                 1.1008                 1.0990
 Frc consts  --     5.9896                 6.1235                 6.1383
 IR Inten    --    35.3409                 9.7695                46.7881

                    79                     80                     81
                     A                      A                      A
 Frequencies --  3079.5906              3082.5898              3089.0514
 Red. masses --     1.0888                 1.1011                 1.1009
 Frc consts  --     6.0841                 6.1645                 6.1892
 IR Inten    --    17.2147                58.5117                15.3793

                    82                     83                     84
                     A                      A                      A
 Frequencies --  3089.8314              3096.8524              3100.7441
 Red. masses --     1.0995                 1.1050                 1.1022
 Frc consts  --     6.1847                 6.2441                 6.2435
 IR Inten    --    60.5369                24.3355                17.0899

 - Thermochemistry -
 -------------------
 Temperature   298.150 Kelvin.  Pressure   1.00000 Atm.
 Atom     1 has atomic number  6 and mass  12.00000

 Molecular mass:   159.13850 amu.
 Principal axes and moments of inertia in atomic units:
                           1         2         3
     Eigenvalues --   904.885684166.521804437.21175
           X            0.99979   0.01979  -0.00438
           Y           -0.01933   0.99600   0.08726
           Z            0.00609  -0.08716   0.99618
 This molecule is an asymmetric top.
 Rotational symmetry number  1.
 Warning -- assumption of classical behavior for rotation
           may cause significant error
 Rotational temperatures (Kelvin)      0.09572     0.02079     0.01952
 Rotational constants (GHZ):           1.99444     0.43315     0.40673
    1 imaginary frequencies ignored.
 Zero-point vibrational energy     689873.7 (Joules/Mol)
                                  164.88378 (Kcal/Mol)
 Warning -- explicit consideration of  19 degrees of freedom as
           vibrations may cause significant error
 Vibrational temperatures:     40.85    58.74   120.81   144.49   168.29
          (Kelvin)            232.61   314.57   319.43   331.16   355.86
                              370.91   432.83   536.60   558.52   613.20
                              663.51   689.95   713.23   831.82   978.27
                             1055.42  1135.30  1196.00  1203.58  1292.74
                             1333.69  1341.30  1362.69  1384.74  1388.24
                             1427.30  1439.46  1486.17  1511.47  1542.93
                             1581.39  1637.21  1656.79  1684.04  1701.84
                             1714.30  1769.72  1800.20  1818.82  1849.31
                             1891.87  1901.44  1943.75  1971.34  1972.86
                             1993.59  2012.54  2019.99  2034.96  2046.13
                             2111.42  2121.33  2139.27  2144.74  2154.67
                             2157.21  2161.62  2166.97  2174.65  2249.00
                             4245.06  4274.64  4290.95  4317.24  4335.55
                             4344.11  4354.70  4355.69  4362.29  4381.72
                             4420.91  4429.80  4430.84  4435.15  4444.45
                             4445.57  4455.67  4461.27

 Zero-point correction=                           0.262759 (Hartree/Particle)
 Thermal correction to Energy=                    0.276141
 Thermal correction to Enthalpy=                  0.277085
 Thermal correction to Gibbs Free Energy=         0.221482
 Sum of electronic and zero-point Energies=           -504.576002
 Sum of electronic and thermal Energies=              -504.562620
 Sum of electronic and thermal Enthalpies=            -504.561676
 Sum of electronic and thermal Free Energies=         -504.617279

                     E (Thermal)             CV                S
                      KCal/Mol        Cal/Mol-Kelvin    Cal/Mol-Kelvin
 Total                  173.281             49.617            117.028
 Electronic               0.000              0.000              1.377
 Translational            0.889              2.981             41.103
 Rotational               0.889              2.981             31.193
 Vibrational            171.504             43.655             43.354
 Vibration     1          0.593              1.984              5.939
 Vibration     2          0.594              1.981              5.219
 Vibration     3          0.601              1.960              3.796
 Vibration     4          0.604              1.949              3.446
 Vibration     5          0.608              1.935              3.150
 Vibration     6          0.622              1.889              2.530
 Vibration     7          0.646              1.813              1.970
 Vibration     8          0.648              1.808              1.943
 Vibration     9          0.652              1.795              1.878
 Vibration    10          0.661              1.767              1.749
 Vibration    11          0.667              1.750              1.677
 Vibration    12          0.693              1.672              1.412
 Vibration    13          0.744              1.528              1.068
 Vibration    14          0.756              1.495              1.007
 Vibration    15          0.788              1.413              0.871
 Vibration    16          0.819              1.336              0.763
 Vibration    17          0.836              1.295              0.711
 Vibration    18          0.851              1.260              0.669
 Vibration    19          0.935              1.079              0.489

 Normal termination of Gaussian 09 at Thu Feb 13 02:17:13 2014.
