 Gaussian 09, Revision C.01,
 Gaussian 09:  EM64L-G09RevC.01 23-Sep-2011

 ----------------------------
 #p ub3lyp/6-311++g(d,p) freq
 ----------------------------

 (Enter /usr/caen/gaussian-09revc/g09/l101.exe)
 --------------------------------------------------------------
 TS_1_1f using B3LYP/6-311++g(d,p) to calc. freq TS | reactants
 --------------------------------------------------------------
 Charge =  0 Multiplicity = 2

                         Standard orientation:
 ---------------------------------------------------------------------
 Center     Atomic      Atomic             Coordinates (Angstroms)
 Number     Number       Type             X           Y           Z
 ---------------------------------------------------------------------
      1          6           0        2.204528   -0.834234    1.460432
      2          1           0        2.363305   -1.909474    1.587542
      3          1           0        1.244296   -0.571611    1.899299
      4          1           0        2.975473   -0.317099    2.039442
      5          6           0        2.315123   -0.453110   -0.029112
      6          1           0        3.342423   -0.720218   -0.314828
      7          6           0        1.409976   -1.294380   -0.969943
      8          1           0        1.866725   -1.296446   -1.966291
      9          1           0        1.459219   -2.331908   -0.619560
     10          6           0       -0.070109   -0.900850   -1.163829
     11          1           0       -0.542901   -1.690782   -1.771189
     12          1           0       -0.123802    0.003695   -1.776148
     13          6           0       -0.896539   -0.706907    0.085316
     14          1           0       -0.364703    0.478044    0.563080
     15          1           0       -0.648564   -1.395355    0.897397
     16          6           0       -2.393861   -0.477133   -0.043573
     17          1           0       -2.813697   -1.416503   -0.444962
     18          6           0       -3.034986   -0.240158    1.332697
     19          1           0       -2.672602    0.693126    1.774513
     20          1           0       -4.123016   -0.170219    1.249282
     21          1           0       -2.803475   -1.053928    2.026441
     22          6           0        2.271193    1.066449   -0.276160
     23          1           0        2.842879    1.586190    0.501441
     24          1           0        2.712355    1.305906   -1.249099
     25          6           0       -2.762557    0.648185   -1.023610
     26          1           0       -3.848814    0.760228   -1.080886
     27          1           0       -2.339746    1.601886   -0.694996
     28          1           0       -2.397933    0.448442   -2.033892
     29          8           0        0.977373    1.675658   -0.388981
     30          8           0        0.224623    1.467949    0.786495
 ---------------------------------------------------------------------

 SCF Done:  E(UB3LYP) =  -504.833632146     A.U. after   17 cycles

 The electronic state is 2-A.
 Alpha  occ. eigenvalues --  -19.18337 -19.17065 -10.22271 -10.18766 -10.18713
 Alpha  occ. eigenvalues --  -10.18416 -10.17710 -10.17601 -10.16003 -10.15967
 Alpha  occ. eigenvalues --  -10.15712  -1.12511  -0.89155  -0.83236  -0.80257
 Alpha  occ. eigenvalues --   -0.75516  -0.69065  -0.68700  -0.67647  -0.61711
 Alpha  occ. eigenvalues --   -0.57063  -0.56515  -0.52346  -0.49199  -0.47496
 Alpha  occ. eigenvalues --   -0.46377  -0.45182  -0.44225  -0.43737  -0.42476
 Alpha  occ. eigenvalues --   -0.41940  -0.40974  -0.39452  -0.38728  -0.37503
 Alpha  occ. eigenvalues --   -0.36102  -0.35756  -0.34713  -0.34089  -0.33829
 Alpha  occ. eigenvalues --   -0.32679  -0.32155  -0.29125  -0.27971  -0.21954
 Alpha virt. eigenvalues --   -0.01467  -0.00344   0.00371   0.00878   0.02112
 Alpha virt. eigenvalues --    0.02309   0.02406   0.03004   0.03506   0.03674
 Alpha virt. eigenvalues --    0.04561   0.05081   0.05531   0.05990   0.06156

  Beta  occ. eigenvalues --  -19.18130 -19.15940 -10.22281 -10.18703 -10.18436
  Beta  occ. eigenvalues --  -10.17867 -10.17708 -10.17619 -10.15993 -10.15968
  Beta  occ. eigenvalues --  -10.15699  -1.11306  -0.87500  -0.82643  -0.80010
  Beta  occ. eigenvalues --   -0.75244  -0.68676  -0.68323  -0.67413  -0.61342
  Beta  occ. eigenvalues --   -0.56348  -0.55825  -0.51271  -0.49028  -0.46993
  Beta  occ. eigenvalues --   -0.46054  -0.44890  -0.43597  -0.42602  -0.41977
  Beta  occ. eigenvalues --   -0.41555  -0.40477  -0.39164  -0.38698  -0.37387
  Beta  occ. eigenvalues --   -0.35818  -0.35454  -0.34240  -0.33862  -0.33178
  Beta  occ. eigenvalues --   -0.32454  -0.31931  -0.27418  -0.26846
  Beta virt. eigenvalues --   -0.10979  -0.01432  -0.00316   0.00400   0.00916
  Beta virt. eigenvalues --    0.02144   0.02328   0.02416   0.03215   0.03563
  Beta virt. eigenvalues --    0.03846   0.04581   0.05153   0.05589   0.06054

 Mulliken atomic charges:
              1
     1  C   -0.589842
     2  H    0.131625
     3  H    0.155524
     4  H    0.147059
     5  C    0.442541
     6  H    0.186215
     7  C   -0.681063
     8  H    0.167874
     9  H    0.148703
    10  C   -0.261250
    11  H    0.185163
    12  H    0.199018
    13  C   -0.402884
    14  H    0.385947
    15  H    0.186260
    16  C    0.218505
    17  H    0.153378
    18  C   -0.568973
    19  H    0.159017
    20  H    0.150846
    21  H    0.126120
    22  C   -0.577772
    23  H    0.174905
    24  H    0.167960
    25  C   -0.676860
    26  H    0.155601
    27  H    0.185694
    28  H    0.136690
    29  O   -0.010925
    30  O   -0.195078
 Sum of Mulliken atomic charges =   0.00000

 Dipole moment (field-independent basis, Debye):
    X=              0.6897    Y=             -2.5524    Z=             -0.8362  Tot=              2.7730
 Quadrupole moment (field-independent basis, Debye-Ang):
   XX=            -65.3950   YY=            -76.5398   ZZ=            -72.5896
   XY=              0.8577   XZ=             -0.9265   YZ=             -0.6685

  Exact polarizability: 147.921  10.095 118.437   0.024   2.121 114.219
 Approx polarizability: 182.747  19.538 182.979  -3.355   4.772 167.318

 ******    1 imaginary frequencies (negative Signs) ******

                     1                      2                      3
                     A                      A                      A
 Frequencies -- -1656.9560                56.3363                72.8030
 Red. masses --     1.1176                 2.5972                 3.6993
 Frc consts  --     1.8079                 0.0049                 0.0116
 IR Inten    --   708.0360                 0.0828                 1.4174

                     4                      5                      6
                     A                      A                      A
 Frequencies --   100.8548               155.3865               190.4713
 Red. masses --     3.3209                 2.6325                 3.1082
 Frc consts  --     0.0199                 0.0374                 0.0664
 IR Inten    --     1.2332                 1.4443                 0.5094

                     7                      8                      9
                     A                      A                      A
 Frequencies --   212.7233               223.5823               226.6368
 Red. masses --     1.1262                 2.9450                 1.1263
 Frc consts  --     0.0300                 0.0867                 0.0341
 IR Inten    --     0.1455                 0.9325                 0.2793

                    10                     11                     12
                     A                      A                      A
 Frequencies --   243.4999               255.2383               290.3939
 Red. masses --     1.3126                 2.3857                 2.5521
 Frc consts  --     0.0459                 0.0916                 0.1268
 IR Inten    --     0.6280                 2.8045                 0.5798

                    13                     14                     15
                     A                      A                      A
 Frequencies --   347.6958               364.4479               370.7887
 Red. masses --     2.4852                 2.7669                 2.0841
 Frc consts  --     0.1770                 0.2165                 0.1688
 IR Inten    --     0.6744                 0.0358                 3.3402

                    16                     17                     18
                     A                      A                      A
 Frequencies --   396.1900               433.8750               465.4160
 Red. masses --     2.6209                 2.6549                 2.5650
 Frc consts  --     0.2424                 0.2945                 0.3274
 IR Inten    --     1.9144                 0.9540                 0.3034

                    19                     20                     21
                     A                      A                      A
 Frequencies --   509.6218               545.6805               700.7713
 Red. masses --     2.7798                 2.6173                 2.6198
 Frc consts  --     0.4254                 0.4592                 0.7580
 IR Inten    --     0.2650                 1.1290                 3.5975

                    22                     23                     24
                     A                      A                      A
 Frequencies --   721.5557               783.4621               820.8217
 Red. masses --     2.7460                 1.8502                 2.0055
 Frc consts  --     0.8423                 0.6691                 0.7961
 IR Inten    --     7.3918                 3.2008                 3.9564

                    25                     26                     27
                     A                      A                      A
 Frequencies --   848.5609               886.0616               918.0327
 Red. masses --     2.6931                 1.6125                 3.0797
 Frc consts  --     1.1425                 0.7459                 1.5292
 IR Inten    --     6.9477                 1.2056                 7.9445

                    28                     29                     30
                     A                      A                      A
 Frequencies --   930.2612               945.0400               967.2052
 Red. masses --     1.2071                 1.7349                 1.5162
 Frc consts  --     0.6155                 0.9129                 0.8357
 IR Inten    --     2.6515                 1.1455                 0.4498

                    31                     32                     33
                     A                      A                      A
 Frequencies --   968.0381               983.1789               993.8791
 Red. masses --     1.8062                 2.3164                 1.7985
 Frc consts  --     0.9973                 1.3192                 1.0467
 IR Inten    --     5.8092                11.2605                15.4345

                    34                     35                     36
                     A                      A                      A
 Frequencies --  1030.2310              1061.9546              1077.8321
 Red. masses --     3.0082                 1.8648                 1.6690
 Frc consts  --     1.8812                 1.2391                 1.1424
 IR Inten    --    19.8474                 0.3605                10.8139

                    37                     38                     39
                     A                      A                      A
 Frequencies --  1115.5467              1131.1471              1144.7309
 Red. masses --     1.9361                 1.1436                 1.5329
 Frc consts  --     1.4196                 0.8621                 1.1835
 IR Inten    --     1.4456                20.9270                 6.6127

                    40                     41                     42
                     A                      A                      A
 Frequencies --  1166.2406              1179.6918              1201.8596
 Red. masses --     2.1609                 2.1887                 1.7496
 Frc consts  --     1.7317                 1.7946                 1.4890
 IR Inten    --     2.2207                 1.0337                 2.4696

                    43                     44                     45
                     A                      A                      A
 Frequencies --  1233.1065              1261.1205              1294.2539
 Red. masses --     1.4108                 1.2296                 1.2300
 Frc consts  --     1.2639                 1.1522                 1.2140
 IR Inten    --     4.2667                 0.4905                 2.5307

                    46                     47                     48
                     A                      A                      A
 Frequencies --  1315.4910              1327.5046              1340.0019
 Red. masses --     1.2319                 1.4307                 1.4447
 Frc consts  --     1.2560                 1.4855                 1.5284
 IR Inten    --     2.1062                13.6683                 5.8864

                    49                     50                     51
                     A                      A                      A
 Frequencies --  1350.5614              1378.0438              1388.1707
 Red. masses --     1.4096                 1.3717                 1.3115
 Frc consts  --     1.5149                 1.5347                 1.4890
 IR Inten    --     2.1615                 1.8303                 0.7218

                    52                     53                     54
                     A                      A                      A
 Frequencies --  1391.9179              1402.9945              1408.7914
 Red. masses --     1.2980                 1.2653                 1.3798
 Frc consts  --     1.4817                 1.4674                 1.6135
 IR Inten    --    10.2013                 9.1393                 1.5109

                    55                     56                     57
                     A                      A                      A
 Frequencies --  1421.8444              1425.2486              1461.7856
 Red. masses --     1.2321                 1.2434                 1.0714
 Frc consts  --     1.4676                 1.4881                 1.3488
 IR Inten    --    12.0172                 5.2447                 8.1529

                    58                     59                     60
                     A                      A                      A
 Frequencies --  1473.9721              1487.0114              1489.1903
 Red. masses --     1.0841                 1.0780                 1.0621
 Frc consts  --     1.3876                 1.4045                 1.3877
 IR Inten    --     4.2038                 2.5387                 3.5284

                    61                     62                     63
                     A                      A                      A
 Frequencies --  1491.6365              1497.2491              1501.3563
 Red. masses --     1.0444                 1.0487                 1.0562
 Frc consts  --     1.3691                 1.3851                 1.4028
 IR Inten    --     1.6278                 5.3051                 7.9642

                    64                     65                     66
                     A                      A                      A
 Frequencies --  1507.9228              1511.2681              1513.6666
 Red. masses --     1.0470                 1.0534                 1.0530
 Frc consts  --     1.4027                 1.4175                 1.4214
 IR Inten    --     8.0750                 4.6368                11.9038

                    67                     68                     69
                     A                      A                      A
 Frequencies --  2922.9284              2947.2695              2981.7471
 Red. masses --     1.0800                 1.0737                 1.0812
 Frc consts  --     5.4365                 5.4951                 5.6639
 IR Inten    --    23.1370                39.8966                12.7783

                    70                     71                     72
                     A                      A                      A
 Frequencies --  3012.4114              3017.7602              3019.8927
 Red. masses --     1.0603                 1.0604                 1.0349
 Frc consts  --     5.6691                 5.6898                 5.5609
 IR Inten    --    58.0402                60.1461                24.8951

                    73                     74                     75
                     A                      A                      A
 Frequencies --  3027.9366              3030.8455              3036.6652
 Red. masses --     1.0358                 1.0452                 1.0969
 Frc consts  --     5.5954                 5.6568                 5.9593
 IR Inten    --    23.4334                44.2445                23.0861

                    76                     77                     78
                     A                      A                      A
 Frequencies --  3057.1434              3069.6232              3071.5070
 Red. masses --     1.0866                 1.1000                 1.0895
 Frc consts  --     5.9835                 6.1069                 6.0561
 IR Inten    --     2.7512                 7.4872                43.0529

                    79                     80                     81
                     A                      A                      A
 Frequencies --  3079.3633              3083.7167              3085.8331
 Red. masses --     1.1011                 1.1013                 1.1022
 Frc consts  --     6.1516                 6.1703                 6.1840
 IR Inten    --    32.4341                41.9380                 5.8202

                    82                     83                     84
                     A                      A                      A
 Frequencies --  3090.9340              3098.2203              3145.3471
 Red. masses --     1.1015                 1.1012                 1.0940
 Frc consts  --     6.2004                 6.2277                 6.3766
 IR Inten    --    56.7755                25.2546                16.3677

 - Thermochemistry -
 -------------------
 Temperature   298.150 Kelvin.  Pressure   1.00000 Atm.
 Atom     1 has atomic number  6 and mass  12.00000

 Molecular mass:   159.13850 amu.
 Principal axes and moments of inertia in atomic units:
                           1         2         3
     Eigenvalues --  1126.040742714.489442846.82091
           X            0.99989  -0.01425   0.00369
           Y            0.01449   0.99717  -0.07371
           Z           -0.00262   0.07375   0.99727
 This molecule is an asymmetric top.
 Rotational symmetry number  1.
 Warning -- assumption of classical behavior for rotation
           may cause significant error
 Rotational temperatures (Kelvin)      0.07692     0.03191     0.03042
 Rotational constants (GHZ):           1.60273     0.66485     0.63395
    1 imaginary frequencies ignored.
 Zero-point vibrational energy     691985.8 (Joules/Mol)
                                  165.38859 (Kcal/Mol)
 Warning -- explicit consideration of  19 degrees of freedom as
           vibrations may cause significant error
 Vibrational temperatures:     81.06   104.75   145.11   223.57   274.05
          (Kelvin)            306.06   321.68   326.08   350.34   367.23
                              417.81   500.26   524.36   533.48   570.03
                              624.25   669.63   733.23   785.11  1008.25
                             1038.16  1127.23  1180.98  1220.89  1274.84
                             1320.84  1338.44  1359.70  1391.59  1392.79
                             1414.57  1429.97  1482.27  1527.91  1550.76
                             1605.02  1627.47  1647.01  1677.96  1697.31
                             1729.21  1774.16  1814.47  1862.14  1892.70
                             1909.98  1927.96  1943.15  1982.70  1997.27
                             2002.66  2018.59  2026.93  2045.71  2050.61
                             2103.18  2120.71  2139.48  2142.61  2146.13
                             2154.20  2160.11  2169.56  2174.38  2177.83
                             4205.44  4240.46  4290.06  4334.18  4341.88
                             4344.95  4356.52  4360.71  4369.08  4398.54
                             4416.50  4419.21  4430.51  4436.77  4439.82
                             4447.16  4457.64  4525.45

 Zero-point correction=                           0.263563 (Hartree/Particle)
 Thermal correction to Energy=                    0.276431
 Thermal correction to Enthalpy=                  0.277375
 Thermal correction to Gibbs Free Energy=         0.224673
 Sum of electronic and zero-point Energies=           -504.570069
 Sum of electronic and thermal Energies=              -504.557201
 Sum of electronic and thermal Enthalpies=            -504.556257
 Sum of electronic and thermal Free Energies=         -504.608959

                     E (Thermal)             CV                S
                      KCal/Mol        Cal/Mol-Kelvin    Cal/Mol-Kelvin
 Total                  173.463             49.389            110.921
 Electronic               0.000              0.000              1.377
 Translational            0.889              2.981             41.103
 Rotational               0.889              2.981             30.543
 Vibrational            171.686             43.428             37.897
 Vibration     1          0.596              1.975              4.582
 Vibration     2          0.599              1.967              4.076
 Vibration     3          0.604              1.948              3.438
 Vibration     4          0.620              1.897              2.605
 Vibration     5          0.634              1.853              2.223
 Vibration     6          0.644              1.822              2.020
 Vibration     7          0.649              1.805              1.930
 Vibration     8          0.650              1.800              1.905
 Vibration     9          0.659              1.774              1.777
 Vibration    10          0.666              1.754              1.694
 Vibration    11          0.686              1.692              1.472
 Vibration    12          0.725              1.580              1.177
 Vibration    13          0.738              1.545              1.103
 Vibration    14          0.743              1.532              1.077
 Vibration    15          0.763              1.478              0.977
 Vibration    16          0.795              1.396              0.846
 Vibration    17          0.823              1.327              0.751
 Vibration    18          0.865              1.229              0.635
 Vibration    19          0.901              1.149              0.553

 Normal termination of Gaussian 09 at Sat Feb 15 18:52:33 2014.
