 Gaussian 09, Revision D.01,
 Gaussian 09:  ES64L-G09RevD.01 24-Apr-2013

 ----------------------------------------------------------------------
 #p B3LYP/6-31G(d) opt=tight int=ultrafine freq EmpiricalDispersion=GD3
 BJ
 ----------------------------------------------------------------------

 -------------------
 Title Card Required
 -------------------
 Symbolic Z-matrix:
 Charge =  0 Multiplicity = 3

 SCF Done:  E(UB3LYP) =  -37.8462799747     A.U. after    9 cycles
 Optimization completed.
    -- Stationary point found.
 Normal termination of Gaussian 09 at Wed Apr 13 14:31:27 2016.

 --------------------------------------------------------------------
 #P Geom=AllCheck Guess=TCheck SCRF=Check GenChk UB3LYP/6-31G(d) Freq
 --------------------------------------------------------------------

 Structure from the checkpoint file:  "/WORK/tsinghua_xqyou_1/scratch/Gau-14941.chk"
 -------------------
 Title Card Required
 -------------------
 Charge =  0 Multiplicity = 3

                         Standard orientation:
 ---------------------------------------------------------------------
 Center     Atomic      Atomic             Coordinates (Angstroms)
 Number     Number       Type             X           Y           Z
 ---------------------------------------------------------------------
      1          6           0        0.000000    0.000000    0.000000
 ---------------------------------------------------------------------

 SCF Done:  E(UB3LYP) =  -37.8462799747     A.U. after    1 cycles

 Unable to determine electronic state:  an orbital has unidentified symmetry.
 Alpha  occ. eigenvalues --  -10.30209  -0.57683  -0.25272  -0.25272
 Alpha virt. eigenvalues --   -0.13885   0.51062   0.51062   0.53609   0.56594
 Alpha virt. eigenvalues --    1.63288   1.63288   1.64345   1.64345   1.66178
 Alpha virt. eigenvalues --    3.75276
  Beta  occ. eigenvalues --  -10.27522  -0.46547
  Beta virt. eigenvalues --   -0.10581  -0.05569  -0.05569   0.55396   0.59097
  Beta virt. eigenvalues --    0.59097   0.61887   1.71290   1.72768   1.72768
  Beta virt. eigenvalues --    1.77243   1.77243   3.82094

 Mulliken charges and spin densities:
               1          2
     1  C    0.000000   2.000000
 Sum of Mulliken charges =   0.00000   2.00000

 Dipole moment (field-independent basis, Debye):
    X=              0.0000    Y=              0.0000    Z=              0.0000  Tot=              0.0000
 Quadrupole moment (field-independent basis, Debye-Ang):
   XX=             -6.4532   YY=             -6.4532   ZZ=             -4.6372
   XY=              0.0000   XZ=              0.0000   YZ=              0.0000

  Exact polarizability:   6.350   0.000   6.350   0.000   0.000   6.988
 Approx polarizability:   6.335   0.000   6.335   0.000   0.000  10.202

 - Thermochemistry -
 -------------------
 Temperature   298.150 Kelvin.  Pressure   1.00000 Atm.
 Atom     1 has atomic number  6 and mass  12.00000
 Molecular mass:    12.00000 amu.
 Zero-point vibrational energy          0.0 (Joules/Mol)
                                    0.00000 (Kcal/Mol)
 Vibrational temperatures:
          (Kelvin)

 Zero-point correction=                           0.000000 (Hartree/Particle)
 Thermal correction to Energy=                    0.001416
 Thermal correction to Enthalpy=                  0.002360
 Thermal correction to Gibbs Free Energy=        -0.014545
 Sum of electronic and zero-point Energies=            -37.846280
 Sum of electronic and thermal Energies=               -37.844864
 Sum of electronic and thermal Enthalpies=             -37.843920
 Sum of electronic and thermal Free Energies=          -37.860825

                     E (Thermal)             CV                S
                      KCal/Mol        Cal/Mol-Kelvin    Cal/Mol-Kelvin
 Total                    0.889              2.981             35.581
 Electronic               0.000              0.000              2.183
 Translational            0.889              2.981             33.398
 Rotational               0.000              0.000              0.000
 Vibrational              0.000              0.000              0.000

 Optimization completed.
    -- Stationary point found.
 Normal termination of Gaussian 09 at Wed Apr 13 14:31:46 2016.
