 Gaussian 09, Revision A.01,
 Gaussian 09:  EM64L-G09RevA.01  8-May-2009

 ---------------------------
 #p ub3lyp/6-31g(d) opt freq
 ---------------------------

 -------------------
 Title Card Required
 -------------------
 Symbolic Z-matrix:
 Charge =  0 Multiplicity = 1

 SCF Done:  E(UB3LYP) =  -498.556912401     A.U. after   13 cycles
 SCF Done:  E(UB3LYP) =  -498.572556249     A.U. after   13 cycles
 SCF Done:  E(UB3LYP) =  -498.574116258     A.U. after   11 cycles
 SCF Done:  E(UB3LYP) =  -498.574244422     A.U. after   10 cycles
 SCF Done:  E(UB3LYP) =  -498.574252948     A.U. after    9 cycles
 Optimization completed.
    -- Stationary point found.
 Normal termination of Gaussian 09 at Tue May 26 04:24:39 2015.

 --------------------------------------------------------------------
 #P Geom=AllCheck Guess=TCheck SCRF=Check GenChk UB3LYP/6-31G(d) Freq
 --------------------------------------------------------------------

 Title Card Required
 -------------------
 Redundant internal coordinates taken from checkpoint file:
 DMM3_1_opt_b3631gd.chk
 Charge =  0 Multiplicity = 1

                         Standard orientation:
 ---------------------------------------------------------------------
 Center     Atomic      Atomic             Coordinates (Angstroms)
 Number     Number       Type             X           Y           Z
 ---------------------------------------------------------------------
      1          6           0       -4.617673   -0.036143    0.000207
      2          1           0       -5.317181   -0.874478   -0.000154
      3          1           0       -4.799619    0.582386   -0.893449
      4          1           0       -4.799424    0.581452    0.894549
      5          8           0       -3.318364   -0.591361   -0.000224
      6          6           0       -2.324218    0.384014    0.000209
      7          1           0       -2.406184    1.032076    0.898689
      8          1           0       -2.406371    1.033071   -0.897538
      9          8           0       -1.111039   -0.311936   -0.000306
     10          6           0        0.000000    0.532956    0.000096
     11          1           0       -0.000122    1.186341   -0.897519
     12          1           0        0.000122    1.185218    0.898525
     13          8           0        1.111039   -0.311936   -0.000552
     14          6           0        2.324218    0.384014   -0.000340
     15          1           0        2.405828    1.033084    0.897450
     16          1           0        2.406728    1.032063   -0.898777
     17          8           0        3.318364   -0.591361    0.000696
     18          6           0        4.617673   -0.036144    0.000080
     19          1           0        4.799562    0.582837    0.893437
     20          1           0        5.317180   -0.874479    0.000924
     21          1           0        4.799482    0.581000   -0.894560
 ---------------------------------------------------------------------

 SCF Done:  E(UB3LYP) =  -498.574252948     A.U. after    1 cycles

 The electronic state is 1-A.
 Alpha  occ. eigenvalues --  -19.16102 -19.16102 -19.15701 -19.15701 -10.29274
 Alpha  occ. eigenvalues --  -10.28841 -10.28841 -10.23524 -10.23524  -1.09615
 Alpha  occ. eigenvalues --   -1.06979  -1.03565  -1.00522  -0.75101  -0.71427
 Alpha  occ. eigenvalues --   -0.66573  -0.63651  -0.63321  -0.53284  -0.53068
 Alpha  occ. eigenvalues --   -0.52407  -0.49823  -0.49431  -0.47701  -0.46363
 Alpha  occ. eigenvalues --   -0.42603  -0.42417  -0.41613  -0.40322  -0.37569
 Alpha  occ. eigenvalues --   -0.34795  -0.33132  -0.33028  -0.29023  -0.26780
 Alpha  occ. eigenvalues --   -0.25765  -0.25716
 Alpha virt. eigenvalues --    0.07474   0.08588   0.09393   0.10851   0.12677
 Alpha virt. eigenvalues --    0.14498   0.15369   0.15572   0.15686   0.15901
 Alpha virt. eigenvalues --    0.16588   0.17777   0.18115   0.19025   0.19815

  Beta  occ. eigenvalues --  -19.16102 -19.16102 -19.15701 -19.15701 -10.29274
  Beta  occ. eigenvalues --  -10.28841 -10.28841 -10.23524 -10.23524  -1.09615
  Beta  occ. eigenvalues --   -1.06979  -1.03565  -1.00522  -0.75101  -0.71427
  Beta  occ. eigenvalues --   -0.66573  -0.63651  -0.63321  -0.53284  -0.53068
  Beta  occ. eigenvalues --   -0.52407  -0.49823  -0.49431  -0.47701  -0.46363
  Beta  occ. eigenvalues --   -0.42603  -0.42417  -0.41613  -0.40322  -0.37569
  Beta  occ. eigenvalues --   -0.34795  -0.33132  -0.33028  -0.29023  -0.26780
  Beta  occ. eigenvalues --   -0.25765  -0.25716
  Beta virt. eigenvalues --    0.07474   0.08588   0.09393   0.10851   0.12677
  Beta virt. eigenvalues --    0.14498   0.15369   0.15572   0.15686   0.15901
  Beta virt. eigenvalues --    0.16588   0.17777   0.18115   0.19025   0.19815

 Mulliken atomic charges:
              1
     1  C   -0.205557
     2  H    0.170916
     3  H    0.135165
     4  H    0.135165
     5  O   -0.441322
     6  C    0.227741
     7  H    0.102362
     8  H    0.102361
     9  O   -0.444323
    10  C    0.222462
    11  H    0.106250
    12  H    0.106273
    13  O   -0.444323
    14  C    0.227741
    15  H    0.102348
    16  H    0.102375
    17  O   -0.441322
    18  C   -0.205557
    19  H    0.135157
    20  H    0.170916
    21  H    0.135172
 Sum of Mulliken atomic charges =   0.00000

 Dipole moment (field-independent basis, Debye):
    X=              0.0000    Y=              4.4680    Z=              0.0008  Tot=              4.4680
 Quadrupole moment (field-independent basis, Debye-Ang):
   XX=            -36.5180   YY=            -57.0551   ZZ=            -55.2016
   XY=              0.0000   XZ=             -0.0065   YZ=             -0.0003

  Exact polarizability:  98.026   0.000  58.462  -0.002   0.000  58.857
 Approx polarizability:  99.630   0.000  88.570  -0.003   0.002  80.909

                     1                      2                      3
                     A                      A                      A
 Frequencies --    29.3373                38.4750                61.1954
 Red. masses --     4.0968                 2.1153                 4.2375
 Frc consts  --     0.0021                 0.0018                 0.0093
 IR Inten    --     4.0539                 0.0000                 0.0000

                     4                      5                      6
                     A                      A                      A
 Frequencies --    72.3818                79.2068                90.6311
 Red. masses --     2.4537                 4.0994                 3.0005
 Frc consts  --     0.0076                 0.0152                 0.0145
 IR Inten    --     0.1116                 0.9047                 0.0000

                     7                      8                      9
                     A                      A                      A
 Frequencies --   100.7539               195.6877               230.0246
 Red. masses --     2.4971                 3.7882                 1.1583
 Frc consts  --     0.0149                 0.0855                 0.0361
 IR Inten    --     0.2363                 1.0970                 0.0000

                    10                     11                     12
                     A                      A                      A
 Frequencies --   230.2689               280.7941               348.9520
 Red. masses --     1.1652                 4.7931                 3.8090
 Frc consts  --     0.0364                 0.2227                 0.2733
 IR Inten    --     6.2834                 0.1373                 3.4680

                    13                     14                     15
                     A                      A                      A
 Frequencies --   429.5506               530.6948               629.2689
 Red. masses --     3.7172                 5.4050                 5.1590
 Frc consts  --     0.4041                 0.8969                 1.2036
 IR Inten    --     1.9624                 0.1202                 0.0623

                    16                     17                     18
                     A                      A                      A
 Frequencies --  1017.2685              1038.3396              1070.1821
 Red. masses --     4.8602                 4.3303                 4.5571
 Frc consts  --     2.9633                 2.7507                 3.0751
 IR Inten    --    22.0741                 2.3471                 0.9170

                    19                     20                     21
                     A                      A                      A
 Frequencies --  1141.0378              1149.2317              1161.4377
 Red. masses --     3.6768                 1.4106                 1.3754
 Frc consts  --     2.8205                 1.0976                 1.0931
 IR Inten    --    81.0543                 1.0281                 0.0221

                    22                     23                     24
                     A                      A                      A
 Frequencies --  1166.6748              1177.9594              1178.7808
 Red. masses --     5.0835                 3.7641                 1.3406
 Frc consts  --     4.0768                 3.0773                 1.0975
 IR Inten    --   954.3339                 3.1296                10.1646

                    25                     26                     27
                     A                      A                      A
 Frequencies --  1198.3338              1199.4456              1208.2480
 Red. masses --     3.2146                 1.3366                 1.4753
 Frc consts  --     2.7198                 1.1329                 1.2689
 IR Inten    --   262.5807                 0.0328                49.0273

                    28                     29                     30
                     A                      A                      A
 Frequencies --  1224.4272              1263.6501              1263.6677
 Red. masses --     7.2157                 2.2968                 1.0769
 Frc consts  --     6.3737                 2.1609                 1.0132
 IR Inten    --    10.2400                37.8118                 2.1916

                    31                     32                     33
                     A                      A                      A
 Frequencies --  1264.0697              1270.1506              1273.4180
 Red. masses --     2.3878                 1.0744                 1.0901
 Frc consts  --     2.2479                 1.0213                 1.0415
 IR Inten    --    47.9225                 0.2836                 0.0000

                    34                     35                     36
                     A                      A                      A
 Frequencies --  1439.8238              1473.1879              1496.6716
 Red. masses --     1.1611                 1.1956                 1.1667
 Frc consts  --     1.4182                 1.5288                 1.5398
 IR Inten    --   309.0913                 5.9639                 0.0350

                    37                     38                     39
                     A                      A                      A
 Frequencies --  1512.4631              1516.9126              1516.9249
 Red. masses --     1.1847                 1.0468                 1.0468
 Frc consts  --     1.5967                 1.4191                 1.4191
 IR Inten    --     0.6848                 0.0000                12.2299

                    40                     41                     42
                     A                      A                      A
 Frequencies --  1526.4107              1537.5430              1546.4244
 Red. masses --     1.1668                 1.0678                 1.2028
 Frc consts  --     1.6018                 1.4872                 1.6947
 IR Inten    --    16.1199                 2.6476                 0.0166

                    43                     44                     45
                     A                      A                      A
 Frequencies --  1570.9984              1582.2105              1593.0698
 Red. masses --     1.0990                 1.0959                 1.0946
 Frc consts  --     1.5980                 1.6165                 1.6367
 IR Inten    --     0.3273                 0.0729                 6.6190

                    46                     47                     48
                     A                      A                      A
 Frequencies --  2884.3886              2893.5523              2906.2570
 Red. masses --     1.0459                 1.0474                 1.1119
 Frc consts  --     5.1270                 5.1671                 5.5335
 IR Inten    --    14.1346                 1.0631                88.5875

                    49                     50                     51
                     A                      A                      A
 Frequencies --  2906.9200              2910.4245              2915.3251
 Red. masses --     1.1110                 1.0495                 1.1107
 Frc consts  --     5.5312                 5.2378                 5.5618
 IR Inten    --     0.0011               162.3556               293.3098

                    52                     53                     54
                     A                      A                      A
 Frequencies --  2992.9231              2993.3265              3036.4450
 Red. masses --     1.0379                 1.0380                 1.1052
 Frc consts  --     5.4776                 5.4798                 6.0039
 IR Inten    --    87.4243                48.1978                 0.0001

                    55                     56                     57
                     A                      A                      A
 Frequencies --  3036.5359              3152.8836              3152.9505
 Red. masses --     1.1052                 1.0961                 1.0961
 Frc consts  --     6.0043                 6.4197                 6.4197
 IR Inten    --   138.2788                20.9745                29.8981

 - Thermochemistry -
 -------------------
 Temperature   298.150 Kelvin.  Pressure   1.00000 Atm.
 Atom     1 has atomic number  6 and mass  12.00000

 Molecular mass:   136.07356 amu.
 Principal axes and moments of inertia in atomic units:
                           1         2         3
     Eigenvalues --   139.468554336.822914418.44623
           X            1.00000   0.00000  -0.00001
           Y            0.00000   1.00000   0.00001
           Z            0.00001  -0.00001   1.00000
 This molecule is an asymmetric top.
 Rotational symmetry number  1.
 Rotational temperatures (Kelvin)      0.62103     0.01997     0.01960
 Rotational constants (GHZ):          12.94013     0.41614     0.40846
 Zero-point vibrational energy     470779.1 (Joules/Mol)
                                  112.51890 (Kcal/Mol)
 Warning -- explicit consideration of  14 degrees of freedom as
           vibrations may cause significant error
 Vibrational temperatures:     42.21    55.36    88.05   104.14   113.96
          (Kelvin)            130.40   144.96   281.55   330.95   331.31
                              404.00   502.06   618.03   763.55   905.38
                             1463.62  1493.94  1539.75  1641.70  1653.49
                             1671.05  1678.58  1694.82  1696.00  1724.13
                             1725.73  1738.40  1761.68  1818.11  1818.13
                             1818.71  1827.46  1832.16  2071.58  2119.59
                             2153.37  2176.09  2182.50  2182.51  2196.16
                             2212.18  2224.96  2260.31  2276.45  2292.07
                             4149.99  4163.17  4181.45  4182.40  4187.45
                             4194.50  4306.14  4306.72  4368.76  4368.89
                             4536.29  4536.39

 Zero-point correction=                           0.179310 (Hartree/Particle)
 Thermal correction to Energy=                    0.191170
 Thermal correction to Enthalpy=                  0.192114
 Thermal correction to Gibbs Free Energy=         0.138819
 Sum of electronic and zero-point Energies=           -498.394943
 Sum of electronic and thermal Energies=              -498.383083
 Sum of electronic and thermal Enthalpies=            -498.382139
 Sum of electronic and thermal Free Energies=         -498.435434

                     E (Thermal)             CV                S
                      KCal/Mol        Cal/Mol-Kelvin    Cal/Mol-Kelvin
 Total                  119.961             36.860            112.169
 Electronic               0.000              0.000              0.000
 Translational            0.889              2.981             40.636
 Rotational               0.889              2.981             29.370
 Vibrational            118.184             30.898             42.162
 Vibration     1          0.593              1.984              5.874
 Vibration     2          0.594              1.982              5.336
 Vibration     3          0.597              1.973              4.418
 Vibration     4          0.598              1.967              4.088
 Vibration     5          0.600              1.963              3.910
 Vibration     6          0.602              1.956              3.646
 Vibration     7          0.604              1.949              3.440
 Vibration     8          0.636              1.846              2.173
 Vibration     9          0.652              1.795              1.879
 Vibration    10          0.652              1.795              1.877
 Vibration    11          0.680              1.709              1.529
 Vibration    12          0.726              1.577              1.171
 Vibration    13          0.791              1.406              0.860
 Vibration    14          0.886              1.182              0.586

 Normal termination of Gaussian 09 at Tue May 26 04:26:35 2015.
