 Gaussian 09, Revision A.01,
 Gaussian 09:  EM64L-G09RevA.01  8-May-2009

 --------------------------------
 #p cbs-qb3 opt=(TS, calcfc) freq
 --------------------------------

 -----------------------------
 using ub3lyp/6-31G(d) to scan
 -----------------------------
 Symbolic Z-matrix:
 Charge =  0 Multiplicity = 2

 SCF Done:  E(UB3LYP) =  -504.825357768     A.U. after   21 cycles
 Optimization completed.
    -- Stationary point found.
 Normal termination of Gaussian 09 at Sat Jun 27 19:29:12 2015.

 ---------------------------------------------------------
 #P Geom=AllCheck Guess=TCheck SCRF=Check B3LYP/CBSB7 Freq
 ---------------------------------------------------------

 using ub3lyp/6-31G(d) to scan
 -----------------------------
 Redundant internal coordinates taken from checkpoint file:
 TS_3e_35_cbs_on_7.chk
 Charge =  0 Multiplicity = 2

 SCF Done:  E(UB3LYP) =  -504.825357768     A.U. after    1 cycles

  Exact polarizability: 150.499 -18.173 128.644   5.343  -1.218 100.639
 Approx polarizability: 184.478 -40.238 208.272  12.916 -13.145 152.305

 ******    1 imaginary frequencies (negative Signs) ******

                     1                      2                      3
                     A                      A                      A
 Frequencies --  -703.8891                28.4597                46.9015
 Red. masses --    12.7774                 3.1730                 2.7143
 Frc consts  --     3.7299                 0.0015                 0.0035
 IR Inten    --   623.5341                 0.3423                 0.2953

                     4                      5                      6
                     A                      A                      A
 Frequencies --    76.1387                86.0306               144.1613
 Red. masses --     3.4528                 3.0494                 3.6206
 Frc consts  --     0.0118                 0.0133                 0.0443
 IR Inten    --     1.5667                 1.6827                 1.3049

                     7                      8                      9
                     A                      A                      A
 Frequencies --   182.2875               200.4989               219.3963
 Red. masses --     1.8694                 1.8234                 1.0903
 Frc consts  --     0.0366                 0.0432                 0.0309
 IR Inten    --    59.7999                48.9501                 0.6115

                    10                     11                     12
                     A                      A                      A
 Frequencies --   230.9425               232.8068               245.6051
 Red. masses --     1.2371                 1.7005                 1.2516
 Frc consts  --     0.0389                 0.0543                 0.0445
 IR Inten    --     1.6270                 9.7862                 1.9211

                    13                     14                     15
                     A                      A                      A
 Frequencies --   248.8699               260.7060               284.5526
 Red. masses --     1.1609                 2.3258                 2.8928
 Frc consts  --     0.0424                 0.0931                 0.1380
 IR Inten    --     0.1502                 5.0414                 5.2134

                    16                     17                     18
                     A                      A                      A
 Frequencies --   328.2801               348.9478               377.4928
 Red. masses --     2.1937                 2.3349                 2.4656
 Frc consts  --     0.1393                 0.1675                 0.2070
 IR Inten    --     6.5094                 1.7591                 1.8076

                    19                     20                     21
                     A                      A                      A
 Frequencies --   425.6092               467.4318               503.2504
 Red. masses --     3.1546                 2.5982                 3.8626
 Frc consts  --     0.3367                 0.3345                 0.5764
 IR Inten    --     7.5101                 6.8727                 1.8660

                    22                     23                     24
                     A                      A                      A
 Frequencies --   539.4897               637.4957               756.9271
 Red. masses --     2.0810                 2.3095                 1.6214
 Frc consts  --     0.3569                 0.5530                 0.5473
 IR Inten    --    11.9557                 8.4989                 2.9452

                    25                     26                     27
                     A                      A                      A
 Frequencies --   759.8712               816.3197               890.2329
 Red. masses --     2.6347                 2.7183                 2.0870
 Frc consts  --     0.8963                 1.0673                 0.9745
 IR Inten    --     1.6363                 2.5461                 0.7925

                    28                     29                     30
                     A                      A                      A
 Frequencies --   910.0892               933.7601               934.7264
 Red. masses --     2.4485                 1.1936                 1.1983
 Frc consts  --     1.1949                 0.6131                 0.6168
 IR Inten    --    19.4933                 1.6382                 0.8290

                    31                     32                     33
                     A                      A                      A
 Frequencies --   960.5782               963.1915               969.7241
 Red. masses --     1.4788                 1.4638                 1.6336
 Frc consts  --     0.8040                 0.8001                 0.9051
 IR Inten    --     7.8375                 0.4052                 2.8980

                    34                     35                     36
                     A                      A                      A
 Frequencies --   992.9351              1011.1249              1058.1995
 Red. masses --     2.2452                 1.7869                 1.5881
 Frc consts  --     1.3042                 1.0764                 1.0478
 IR Inten    --     7.9532                61.3500                10.4447

                    37                     38                     39
                     A                      A                      A
 Frequencies --  1090.0097              1093.9553              1121.8299
 Red. masses --     1.6789                 1.8973                 2.1079
 Frc consts  --     1.1753                 1.3378                 1.5630
 IR Inten    --    52.0731                 8.2856                 0.2284

                    40                     41                     42
                     A                      A                      A
 Frequencies --  1153.5716              1159.4400              1188.3008
 Red. masses --     1.9543                 1.7703                 1.6279
 Frc consts  --     1.5322                 1.4022                 1.3544
 IR Inten    --     0.7805                 8.8542                 0.2927

                    43                     44                     45
                     A                      A                      A
 Frequencies --  1207.3285              1233.5578              1276.4690
 Red. masses --     1.7979                 1.5868                 1.4338
 Frc consts  --     1.5441                 1.4227                 1.3765
 IR Inten    --     1.3370                 2.9907                 5.0137

                    46                     47                     48
                     A                      A                      A
 Frequencies --  1296.9054              1316.1710              1335.1729
 Red. masses --     1.3573                 1.2826                 1.3004
 Frc consts  --     1.3451                 1.3091                 1.3658
 IR Inten    --     0.1927                11.3649                11.3272

                    49                     50                     51
                     A                      A                      A
 Frequencies --  1349.6962              1359.2230              1391.2109
 Red. masses --     1.3382                 1.4284                 1.2351
 Frc consts  --     1.4363                 1.5548                 1.4084
 IR Inten    --     0.9711                 5.0706                 3.5379

                    52                     53                     54
                     A                      A                      A
 Frequencies --  1392.8249              1405.1617              1409.4844
 Red. masses --     1.2088                 1.3371                 1.3339
 Frc consts  --     1.3816                 1.5555                 1.5614
 IR Inten    --     4.0345                 9.8866                 2.4347

                    55                     56                     57
                     A                      A                      A
 Frequencies --  1422.8055              1426.2144              1487.0585
 Red. masses --     1.2667                 1.4311                 1.0978
 Frc consts  --     1.5108                 1.7150                 1.4303
 IR Inten    --    13.8565                 1.5212                 1.0836

                    58                     59                     60
                     A                      A                      A
 Frequencies --  1488.9601              1491.6520              1492.2018
 Red. masses --     1.0510                 1.0438                 1.0442
 Frc consts  --     1.3729                 1.3684                 1.3699
 IR Inten    --     3.7869                 1.4984                 0.9209

                    61                     62                     63
                     A                      A                      A
 Frequencies --  1499.3475              1502.5551              1509.2007
 Red. masses --     1.0571                 1.0576                 1.0499
 Frc consts  --     1.4001                 1.4069                 1.4090
 IR Inten    --     2.9357                 6.6696                11.0071

                    64                     65                     66
                     A                      A                      A
 Frequencies --  1513.7132              1514.8959              3015.0544
 Red. masses --     1.0578                 1.0623                 1.0775
 Frc consts  --     1.4280                 1.4364                 5.7709
 IR Inten    --    14.5631                 9.9235                 2.7204

                    67                     68                     69
                     A                      A                      A
 Frequencies --  3016.1193              3016.4880              3019.8374
 Red. masses --     1.0366                 1.0345                 1.0422
 Frc consts  --     5.5559                 5.5460                 5.5999
 IR Inten    --    25.0291                34.0665                18.4378

                    70                     71                     72
                     A                      A                      A
 Frequencies --  3023.0908              3032.8680              3038.9303
 Red. masses --     1.0424                 1.0699                 1.0711
 Frc consts  --     5.6127                 5.7985                 5.8280
 IR Inten    --    42.4715                15.7942                30.0979

                    73                     74                     75
                     A                      A                      A
 Frequencies --  3045.0985              3073.5905              3077.9480
 Red. masses --     1.0835                 1.0993                 1.1023
 Frc consts  --     5.9195                 6.1185                 6.1528
 IR Inten    --    12.6586                12.0382                33.6458

                    76                     77                     78
                     A                      A                      A
 Frequencies --  3078.2470              3083.6148              3084.9761
 Red. masses --     1.1014                 1.1011                 1.1010
 Frc consts  --     6.1488                 6.1687                 6.1736
 IR Inten    --     2.7116                30.5996                77.5744

                    79                     80                     81
                     A                      A                      A
 Frequencies --  3086.6043              3087.5850              3100.9388
 Red. masses --     1.1005                 1.1019                 1.1004
 Frc consts  --     6.1775                 6.1890                 6.2341
 IR Inten    --    41.0869                42.6608                27.3820

                    82                     83                     84
                     A                      A                      A
 Frequencies --  3113.9623              3148.1728              3805.1690
 Red. masses --     1.1003                 1.0878                 1.0681
 Frc consts  --     6.2860                 6.3523                 9.1117
 IR Inten    --    16.8220                19.0779                51.4766

 - Thermochemistry -
 -------------------
 Temperature   298.150 Kelvin.  Pressure   1.00000 Atm.
 Atom     1 has atomic number  6 and mass  12.00000

 Molecular mass:   159.13850 amu.
 Principal axes and moments of inertia in atomic units:
                           1         2         3
     Eigenvalues --  1107.119232962.135753495.03622
           X            0.99992   0.01218  -0.00169
           Y           -0.01212   0.99944   0.03132
           Z            0.00207  -0.03129   0.99951
 This molecule is an asymmetric top.
 Rotational symmetry number  1.
 Warning -- assumption of classical behavior for rotation
           may cause significant error
 Rotational temperatures (Kelvin)      0.07823     0.02924     0.02478
 Rotational constants (GHZ):           1.63012     0.60927     0.51637
    1 imaginary frequencies ignored.
 Zero-point vibrational energy     694732.8 (Joules/Mol)
                                  166.04511 (Kcal/Mol)
 Warning -- explicit consideration of  21 degrees of freedom as
           vibrations may cause significant error
 Vibrational temperatures:     40.95    67.48   109.55   123.78   207.42
          (Kelvin)            262.27   288.47   315.66   332.27   334.96
                              353.37   358.07   375.10   409.41   472.32
                              502.06   543.13   612.36   672.53   724.06
                              776.20   917.21  1089.05  1093.28  1174.50
                             1280.85  1309.41  1343.47  1344.86  1382.06
                             1385.82  1395.21  1428.61  1454.78  1522.51
                             1568.28  1573.96  1614.06  1659.73  1668.17
                             1709.70  1737.07  1774.81  1836.55  1865.96
                             1893.67  1921.01  1941.91  1955.62  2001.64
                             2003.96  2021.71  2027.93  2047.10  2052.00
                             2139.54  2142.28  2146.15  2146.94  2157.22
                             2161.84  2171.40  2177.89  2179.59  4337.99
                             4339.52  4340.05  4344.87  4349.55  4363.62
                             4372.34  4381.21  4422.21  4428.48  4428.91
                             4436.63  4438.59  4440.93  4442.34  4461.55
                             4480.29  4529.51  5474.78

 Zero-point correction=                           0.264610 (Hartree/Particle)
 Thermal correction to Energy=                    0.279132
 Thermal correction to Enthalpy=                  0.280076
 Thermal correction to Gibbs Free Energy=         0.222720
 Sum of electronic and zero-point Energies=           -504.560748
 Sum of electronic and thermal Energies=              -504.546226
 Sum of electronic and thermal Enthalpies=            -504.545281
 Sum of electronic and thermal Free Energies=         -504.602637

                     E (Thermal)             CV                S
                      KCal/Mol        Cal/Mol-Kelvin    Cal/Mol-Kelvin
 Total                  175.158             52.974            120.716
 Electronic               0.000              0.000              1.377
 Translational            0.889              2.981             41.103
 Rotational               0.889              2.981             30.817
 Vibrational            173.381             47.013             47.419
 Vibration     1          0.593              1.984              5.934
 Vibration     2          0.595              1.979              4.944
 Vibration     3          0.599              1.965              3.988
 Vibration     4          0.601              1.959              3.748
 Vibration     5          0.616              1.909              2.748
 Vibration     6          0.630              1.864              2.305
 Vibration     7          0.638              1.839              2.129
 Vibration     8          0.647              1.812              1.964
 Vibration     9          0.653              1.794              1.872
 Vibration    10          0.654              1.791              1.857
 Vibration    11          0.660              1.770              1.762
 Vibration    12          0.662              1.765              1.739
 Vibration    13          0.669              1.745              1.657
 Vibration    14          0.683              1.702              1.506
 Vibration    15          0.712              1.619              1.269
 Vibration    16          0.726              1.577              1.171
 Vibration    17          0.748              1.518              1.049
 Vibration    18          0.787              1.415              0.873
 Vibration    19          0.825              1.322              0.745
 Vibration    20          0.859              1.243              0.650
 Vibration    21          0.895              1.163              0.566

 Optimization completed.
    -- Stationary point found.
 Normal termination of Gaussian 09 at Sat Jun 27 19:40:24 2015.

 -----------------------------------------------------------
 #P Geom=AllCheck Guess=TCheck SCRF=Check CCSD(T)/6-31+G(d')
 -----------------------------------------------------------

 using ub3lyp/6-31G(d) to scan
 -----------------------------
 Redundant internal coordinates taken from checkpoint file:
 TS_3e_35_cbs_on_7.chk
 Charge =  0 Multiplicity = 2

 SCF Done:  E(UHF) =  -501.421979198     A.U. after   24 cycles
 E2 =    -0.1535770382D+01 EUMP2 =    -0.50295774958037D+03
 CCSD(T)
 CCSD(T)= -0.50316713019D+03
 5\MP4SDQ=-503.087648\CCSD=-503.1083486\CCSD(T)=-503.1671302\S2=1.25212
 Normal termination of Gaussian 09 at Sun Jun 28 09:56:38 2015.

 -----------------------------------------------------
 #P Geom=AllCheck Guess=TCheck SCRF=Check MP4SDQ/CBSB4
 -----------------------------------------------------

 using ub3lyp/6-31G(d) to scan
 -----------------------------
 Redundant internal coordinates taken from checkpoint file:
 TS_3e_35_cbs_on_7.chk
 Charge =  0 Multiplicity = 2

 SCF Done:  E(UHF) =  -501.454097363     A.U. after   19 cycles
 E2 =    -0.1660913427D+01 EUMP2 =    -0.50311501079047D+03
 Normal termination of Gaussian 09 at Sun Jun 28 10:37:46 2015.

 ----------------------------------------------------------------------
 #P Geom=AllCheck Guess=TCheck SCRF=Check MP2/CBSB3 CBSExtrap=(NMin=10,
 MinPop)
 ----------------------------------------------------------------------

 using ub3lyp/6-31G(d) to scan
 -----------------------------
 Redundant internal coordinates taken from checkpoint file:
 TS_3e_35_cbs_on_7.chk
 Charge =  0 Multiplicity = 2

                         Standard orientation:
 ---------------------------------------------------------------------
 Center     Atomic      Atomic             Coordinates (Angstroms)
 Number     Number       Type             X           Y           Z
 ---------------------------------------------------------------------
      1          6           0       -3.232302   -1.139946   -0.575997
      2          1           0       -2.814550   -2.148348   -0.484599
      3          1           0       -4.224698   -1.155894   -0.117384
      4          6           0       -2.338586   -0.091733    0.100500
      5          6           0       -2.186065   -0.353942    1.603496
      6          1           0       -1.533476    0.391126    2.063439
      7          1           0       -3.158715   -0.303703    2.100861
      8          6           0       -0.995242    0.028204   -0.634867
      9          1           0       -1.191018    0.270587   -1.683752
     10          6           0       -0.005220   -1.146849   -0.486535
     11          1           0       -0.451165   -2.015162    0.006263
     12          1           0        0.372633   -1.469719   -1.459956
     13          6           0        1.086738   -0.510417    0.333173
     14          6           0        2.426573   -0.161835   -0.230453
     15          1           0        2.289444    0.078374   -1.291507
     16          1           0       -3.362860   -0.927286   -1.641371
     17          1           0       -1.769397   -1.346002    1.808514
     18          8           0       -0.153619    1.078747   -0.085983
     19          8           0       -0.947799    2.475226   -0.563815
     20          1           0       -0.906709    2.897398    0.304402
     21          1           0       -2.809450    0.888492   -0.022345
     22          6           0        3.024764    1.067905    0.467437
     23          1           0        3.170898    0.878539    1.536291
     24          1           0        3.997717    1.322957    0.037984
     25          1           0        2.360544    1.926471    0.357531
     26          6           0        3.379723   -1.377318   -0.140236
     27          1           0        2.970241   -2.249882   -0.656525
     28          1           0        4.345012   -1.138512   -0.596832
     29          1           0        3.559951   -1.655154    0.902795
     30          1           0        1.004646   -0.560480    1.415458
 ---------------------------------------------------------------------

 SCF Done:  E(UHF) =  -501.588326980     A.U. after   21 cycles
 E2 =    -0.1962448251D+01 EUMP2 =    -0.50355077523129D+03
 E2(CBS)=      -2.156338 CBS-Int=       0.064427 OIii=      17.188400

 The electronic state is 2-A.
 Alpha  occ. eigenvalues --  -20.60737 -20.58202 -11.27853 -11.22554 -11.22414
 Alpha  occ. eigenvalues --  -11.22311 -11.22030 -11.21487 -11.21037 -11.20931
 Alpha  occ. eigenvalues --  -11.20236  -1.40079  -1.25529  -1.08945  -1.07504
 Alpha  occ. eigenvalues --   -1.00517  -0.93271  -0.92451  -0.90857  -0.83460
 Alpha  occ. eigenvalues --   -0.76688  -0.73984  -0.68616  -0.66177  -0.64645
 Alpha  occ. eigenvalues --   -0.62533  -0.60808  -0.59508  -0.58541  -0.56387
 Alpha  occ. eigenvalues --   -0.56123  -0.54848  -0.54286  -0.53321  -0.53128
 Alpha  occ. eigenvalues --   -0.52095  -0.50299  -0.50008  -0.48031  -0.47392
 Alpha  occ. eigenvalues --   -0.46994  -0.46402  -0.45134  -0.41918  -0.31263
 Alpha virt. eigenvalues --    0.03893   0.04733   0.04896   0.05456   0.06347
 Alpha virt. eigenvalues --    0.06594   0.06938   0.07247   0.07834   0.08469
 Alpha virt. eigenvalues --    0.08878   0.09232   0.09682   0.10290   0.11113

  Beta  occ. eigenvalues --  -20.60721 -20.57481 -11.27525 -11.22726 -11.22432
  Beta  occ. eigenvalues --  -11.22311 -11.21480 -11.21033 -11.20723 -11.20166
  Beta  occ. eigenvalues --  -11.20163  -1.39981  -1.21956  -1.08155  -1.07092
  Beta  occ. eigenvalues --   -1.00228  -0.93205  -0.91996  -0.89131  -0.82546
  Beta  occ. eigenvalues --   -0.75978  -0.72666  -0.68583  -0.65719  -0.63309
  Beta  occ. eigenvalues --   -0.62421  -0.60376  -0.59303  -0.57778  -0.55732
  Beta  occ. eigenvalues --   -0.54847  -0.53827  -0.53422  -0.53037  -0.52471
  Beta  occ. eigenvalues --   -0.51495  -0.49904  -0.48287  -0.47464  -0.46860
  Beta  occ. eigenvalues --   -0.46210  -0.46130  -0.44511  -0.42390
  Beta virt. eigenvalues --    0.03887   0.04713   0.04913   0.05411   0.06343
  Beta virt. eigenvalues --    0.06540   0.06845   0.07253   0.07728   0.08467
  Beta virt. eigenvalues --    0.08874   0.09245   0.09671   0.10273   0.11058

 Mulliken atomic charges:
              1
     1  C   -0.546817
     2  H    0.065507
     3  H    0.080201
     4  C    0.376488
     5  C   -0.364854
     6  H    0.063516
     7  H    0.093251
     8  C    0.230310
     9  H    0.155085
    10  C   -0.518552
    11  H    0.063737
    12  H    0.094168
    13  C   -0.335718
    14  C    0.807507
    15  H    0.041239
    16  H    0.053182
    17  H    0.055586
    18  O   -0.035903
    19  O   -0.273201
    20  H    0.262832
    21  H    0.090820
    22  C   -0.500362
    23  H    0.055749
    24  H    0.086993
    25  H    0.071305
    26  C   -0.559000
    27  H    0.059755
    28  H    0.083191
    29  H    0.062550
    30  H    0.181437
 Sum of Mulliken atomic charges =   0.00000

 Dipole moment (field-independent basis, Debye):
    X=             -0.6790    Y=             -0.9007    Z=              0.7912  Tot=              1.3777
 Quadrupole moment (field-independent basis, Debye-Ang):
   XX=            -70.9800   YY=            -71.3234   ZZ=            -71.0969
   XY=             -0.4496   XZ=             -1.2073   YZ=              4.2470

    1 imaginary frequencies ignored.
 Normal termination of Gaussian 09 at Sun Jun 28 11:36:42 2015.
