 Gaussian 09, Revision D.01,
 Gaussian 09:  ES64L-G09RevD.01 24-Apr-2013

 -----------------
 #p M062X/def2TZVP
 -----------------

 -----------------------------
 using ub3lyp/6-31G(d) to scan
 -----------------------------
 Symbolic Z-matrix:
 Charge =  0 Multiplicity = 1

                         Standard orientation:
 ---------------------------------------------------------------------
 Center     Atomic      Atomic             Coordinates (Angstroms)
 Number     Number       Type             X           Y           Z
 ---------------------------------------------------------------------
      1          6           0       -1.806323   -0.661009   -0.005040
      2          1           0       -1.958252   -0.716758    1.081840
      3          1           0       -1.827004   -1.685250   -0.395383
      4          1           0       -2.644511   -0.106050   -0.438064
      5          6           0       -0.483274    0.033838   -0.332881
      6          1           0       -0.361437    0.072247   -1.423137
      7          6           0        0.728677   -0.689926    0.271816
      8          1           0        0.710207   -1.740580   -0.049284
      9          1           0        0.613585   -0.705897    1.367550
     10          6           0        2.067386   -0.048406   -0.102296
     11          1           0        2.083678    1.006354    0.188310
     12          1           0        2.903970   -0.557299    0.389179
     13          1           0        2.236393   -0.095797   -1.185153
     14          8           0       -0.519001    1.411277    0.056798
     15          1           0       -0.643418    1.431829    1.020164
 ---------------------------------------------------------------------

 SCF Done:  E(RM062X) =  -233.646562409     A.U. after   14 cycles

 The electronic state is 1-A.
 Alpha  occ. eigenvalues --  -19.62012 -10.58630 -10.53371 -10.52752 -10.52098
 Alpha  occ. eigenvalues --   -1.13835  -0.88273  -0.82082  -0.72173  -0.67587
 Alpha  occ. eigenvalues --   -0.54753  -0.54617  -0.51618  -0.48669  -0.47460
 Alpha  occ. eigenvalues --   -0.44021  -0.43013  -0.41078  -0.39959  -0.37983
 Alpha  occ. eigenvalues --   -0.34465
 Alpha virt. eigenvalues --    0.05674   0.08923   0.09583   0.11597   0.13077
 Alpha virt. eigenvalues --    0.13903   0.14689   0.15934   0.17185   0.17652
 Alpha virt. eigenvalues --    0.19022   0.20197   0.21832   0.22910   0.26309

 Mulliken charges:
               1
     1  C   -0.423138
     2  H    0.128544
     3  H    0.138006
     4  H    0.157235
     5  C    0.039945
     6  H    0.118743
     7  C   -0.277868
     8  H    0.129597
     9  H    0.127551
    10  C   -0.401415
    11  H    0.145873
    12  H    0.138771
    13  H    0.133733
    14  O   -0.464584
    15  H    0.309006
 Sum of Mulliken charges =   0.00000

 Dipole moment (field-independent basis, Debye):
    X=             -0.1356    Y=             -1.3902    Z=              0.9310  Tot=              1.6787
 Quadrupole moment (field-independent basis, Debye-Ang):
   XX=            -33.9003   YY=            -36.1950   ZZ=            -31.1707
   XY=              0.3129   XZ=             -0.6126   YZ=              2.3871

 Normal termination of Gaussian 09 at Tue Oct  6 19:37:52 2015.
