 Gaussian 09, Revision D.01,
 Gaussian 09:  ES64L-G09RevD.01 24-Apr-2013

 -----------------
 #p M062X/def2TZVP
 -----------------

 -----------------------------
 using ub3lyp/6-31G(d) to scan
 -----------------------------
 Symbolic Z-matrix:
 Charge =  0 Multiplicity = 1

                         Standard orientation:
 ---------------------------------------------------------------------
 Center     Atomic      Atomic             Coordinates (Angstroms)
 Number     Number       Type             X           Y           Z
 ---------------------------------------------------------------------
      1          6           0        0.387221    0.000318    0.036019
      2          8           0       -0.726277   -0.055808   -0.891099
      3          8           0       -1.972813    0.106256   -0.153695
      4          1           0       -2.339785   -0.790216   -0.251594
      5          6           0        0.409531    1.356285    0.748776
      6          1           0       -0.489915    1.485819    1.356510
      7          1           0        1.284915    1.432314    1.403782
      8          1           0        0.451366    2.169271    0.016521
      9          6           0        0.310887   -1.164550    1.029593
     10          1           0        1.187818   -1.170641    1.686131
     11          1           0       -0.581058   -1.078966    1.657292
     12          1           0        0.276601   -2.121966    0.496903
     13          6           0        1.583921   -0.152348   -0.910368
     14          1           0        1.592126    0.652704   -1.651755
     15          1           0        2.518214   -0.109724   -0.340788
     16          1           0        1.543083   -1.110420   -1.438771
 ---------------------------------------------------------------------

 SCF Done:  E(RM062X) =  -308.785786546     A.U. after   15 cycles

 The electronic state is 1-A.
 Alpha  occ. eigenvalues --  -19.67972 -19.67841 -10.60106 -10.53081 -10.52936
 Alpha  occ. eigenvalues --  -10.52313  -1.23915  -1.03026  -0.87992  -0.78688
 Alpha  occ. eigenvalues --   -0.78406  -0.64488  -0.59245  -0.55483  -0.53869
 Alpha  occ. eigenvalues --   -0.51254  -0.48611  -0.45678  -0.45558  -0.44488
 Alpha  occ. eigenvalues --   -0.43237  -0.41591  -0.39616  -0.37451  -0.34294
 Alpha virt. eigenvalues --    0.05288   0.06668   0.10303   0.11431   0.12484
 Alpha virt. eigenvalues --    0.13037   0.13394   0.14186   0.16204   0.18240
 Alpha virt. eigenvalues --    0.18607   0.19297   0.19919   0.20464   0.21233

 Mulliken charges:
               1
     1  C    0.160503
     2  O   -0.198394
     3  O   -0.338397
     4  H    0.338104
     5  C   -0.426283
     6  H    0.165221
     7  H    0.138950
     8  H    0.150219
     9  C   -0.488767
    10  H    0.147704
    11  H    0.161833
    12  H    0.152962
    13  C   -0.415829
    14  H    0.158711
    15  H    0.141557
    16  H    0.151907
 Sum of Mulliken charges =   0.00000

 Dipole moment (field-independent basis, Debye):
    X=              0.8852    Y=             -1.3456    Z=              0.9727  Tot=              1.8816
 Quadrupole moment (field-independent basis, Debye-Ang):
   XX=            -36.5981   YY=            -37.3827   ZZ=            -39.9697
   XY=              3.7999   XZ=             -0.7324   YZ=              0.3826

 Normal termination of Gaussian 09 at Tue Oct  6 19:38:57 2015.
