 Gaussian 09, Revision C.01,

 --------------------------------------------------
 #p stable=(opt,xqc) ub3lyp/6-311++g(d,p) guess=mix
 --------------------------------------------------

 (Enter /usr/caen/gaussian-09revc/g09/l101.exe)
 -----------------------------------------------------------------
 C9H18OOH_1_26_h using B3LYP/6-311++g(d,p) to do opt and cal. freq
 -----------------------------------------------------------------
 Charge =  0 Multiplicity = 2

 SCF Done:  E(UB3LYP) =  -504.817354205     A.U. after   19 cycles
 Normal termination of Gaussian 09 at Fri Feb  7 00:14:19 2014.
 Gaussian 09:  EM64L-G09RevC.01 23-Sep-2011

 -------------------------------------------------------------
 #p UB3LYP/6-311++G(d,p) opt=calcfc freq geom=check guess=read
 -------------------------------------------------------------

 ---------------------
 optimization and freq
 ---------------------
 Structure from the checkpoint file:  C9H18OOH_1_26_h.chk
 Charge =  0 Multiplicity = 2

 SCF Done:  E(UB3LYP) =  -504.817354205     A.U. after    2 cycles
 SCF Done:  E(UB3LYP) =  -504.837544422     A.U. after   15 cycles
 SCF Done:  E(UB3LYP) =  -504.842132803     A.U. after   15 cycles
 SCF Done:  E(UB3LYP) =  -504.830484812     A.U. after   13 cycles
 SCF Done:  E(UB3LYP) =  -504.833302283     A.U. after   11 cycles
 SCF Done:  E(UB3LYP) =  -504.835815868     A.U. after   11 cycles
 SCF Done:  E(UB3LYP) =  -504.838035942     A.U. after   11 cycles
 SCF Done:  E(UB3LYP) =  -504.842133323     A.U. after   13 cycles
 SCF Done:  E(UB3LYP) =  -504.843271488     A.U. after   13 cycles
 SCF Done:  E(UB3LYP) =  -504.843991306     A.U. after   11 cycles
 SCF Done:  E(UB3LYP) =  -504.844119269     A.U. after   11 cycles
 SCF Done:  E(UB3LYP) =  -504.844134210     A.U. after   11 cycles
 SCF Done:  E(UB3LYP) =  -504.844147082     A.U. after   11 cycles
 SCF Done:  E(UB3LYP) =  -504.844150796     A.U. after   10 cycles
 SCF Done:  E(UB3LYP) =  -504.844151231     A.U. after    9 cycles
 SCF Done:  E(UB3LYP) =  -504.844151359     A.U. after    9 cycles
 SCF Done:  E(UB3LYP) =  -504.844151394     A.U. after    8 cycles
 SCF Done:  E(UB3LYP) =  -504.844151397     A.U. after    8 cycles
 Optimization completed.
    -- Stationary point found.
 Normal termination of Gaussian 09 at Fri Feb  7 02:19:42 2014.

 ----------------------------------------------------------------------
 #P Geom=AllCheck Guess=TCheck SCRF=Check GenChk UB3LYP/6-311++G(d,p) F
 req
 ----------------------------------------------------------------------

 Structure from the checkpoint file:  C9H18OOH_1_26_h.chk
 ---------------------
 optimization and freq
 ---------------------
 Charge =  0 Multiplicity = 2

                         Standard orientation:
 ---------------------------------------------------------------------
 Center     Atomic      Atomic             Coordinates (Angstroms)
 Number     Number       Type             X           Y           Z
 ---------------------------------------------------------------------
      1          6           0       -3.100306   -1.677721   -0.271251
      2          1           0       -2.803976   -2.707563   -0.488016
      3          1           0       -3.328943   -1.183628   -1.218788
      4          1           0       -4.022222   -1.711326    0.317711
      5          6           0       -1.983479   -0.934423    0.475746
      6          1           0       -1.804645   -1.456242    1.428304
      7          6           0       -0.664983   -0.967031   -0.322311
      8          1           0       -0.476074   -2.010654   -0.604232
      9          1           0       -0.797059   -0.415367   -1.258558
     10          6           0        0.564125   -0.429828    0.420074
     11          1           0        0.668927   -0.952361    1.380987
     12          1           0        0.425274    0.629135    0.656538
     13          6           0        1.860077   -0.596301   -0.382015
     14          1           0        1.759894   -0.082451   -1.347559
     15          1           0        2.005476   -1.658202   -0.615466
     16          6           0        3.120003   -0.068796    0.330077
     17          1           0        3.185253   -0.558049    1.313406
     18          6           0        4.397392   -0.472817   -0.449968
     19          1           0        4.388031   -0.043411   -1.456210
     20          1           0        5.298724   -0.119725    0.057574
     21          1           0        4.463137   -1.561763   -0.543725
     22          6           0       -2.449306    0.469146    0.887077
     23          1           0       -3.346769    0.385316    1.510666
     24          1           0       -1.687248    1.009653    1.456142
     25          6           0        3.077680    1.409560    0.545145
     26          1           0        3.714159    1.881124    1.285403
     27          1           0        2.536615    2.055816   -0.137931
     28          8           0       -2.905760    1.296748   -0.187271
     29          8           0       -1.738257    1.866021   -0.855310
     30          1           0       -1.953641    2.806805   -0.791033
 ---------------------------------------------------------------------

 SCF Done:  E(UB3LYP) =  -504.844151397     A.U. after    1 cycles

 The electronic state is 2-A.
 Alpha  occ. eigenvalues --  -19.18353 -19.18224 -10.22190 -10.17765 -10.17664
 Alpha  occ. eigenvalues --  -10.17309 -10.16169 -10.16066 -10.15872 -10.15847
 Alpha  occ. eigenvalues --  -10.15528  -1.12280  -0.92439  -0.82033  -0.79986
 Alpha  occ. eigenvalues --   -0.74591  -0.67917  -0.67764  -0.67017  -0.60244
 Alpha  occ. eigenvalues --   -0.56657  -0.55770  -0.53083  -0.49406  -0.47719
 Alpha  occ. eigenvalues --   -0.46753  -0.45059  -0.43911  -0.42872  -0.42257
 Alpha  occ. eigenvalues --   -0.40994  -0.39697  -0.38773  -0.37597  -0.36943
 Alpha  occ. eigenvalues --   -0.35795  -0.35432  -0.34746  -0.33504  -0.32610
 Alpha  occ. eigenvalues --   -0.32288  -0.31123  -0.30693  -0.26676  -0.20508
 Alpha virt. eigenvalues --   -0.01728  -0.00656  -0.00058   0.00725   0.00781
 Alpha virt. eigenvalues --    0.01686   0.02164   0.02397   0.03492   0.03765
 Alpha virt. eigenvalues --    0.04066   0.04312   0.05443   0.05840   0.06041

  Beta  occ. eigenvalues --  -19.18353 -19.18224 -10.22190 -10.17842 -10.17664
  Beta  occ. eigenvalues --  -10.16153 -10.15925 -10.15918 -10.15865 -10.15843
  Beta  occ. eigenvalues --  -10.15528  -1.12280  -0.92439  -0.81737  -0.79669
  Beta  occ. eigenvalues --   -0.74314  -0.67791  -0.67335  -0.65253  -0.60001
  Beta  occ. eigenvalues --   -0.56623  -0.55067  -0.53078  -0.49394  -0.47456
  Beta  occ. eigenvalues --   -0.46702  -0.44920  -0.43641  -0.42544  -0.42112
  Beta  occ. eigenvalues --   -0.40844  -0.39400  -0.38376  -0.37374  -0.36892
  Beta  occ. eigenvalues --   -0.35695  -0.35320  -0.34336  -0.33287  -0.32439
  Beta  occ. eigenvalues --   -0.32203  -0.31119  -0.30589  -0.26672
  Beta virt. eigenvalues --   -0.06162  -0.01720  -0.00653   0.00068   0.00755
  Beta virt. eigenvalues --    0.00849   0.01734   0.02241   0.02418   0.03526
  Beta virt. eigenvalues --    0.03769   0.04102   0.04329   0.05454   0.05833

 Mulliken atomic charges:
              1
     1  C   -0.582741
     2  H    0.126469
     3  H    0.176860
     4  H    0.142880
     5  C    0.721550
     6  H    0.145914
     7  C   -0.628484
     8  H    0.145433
     9  H    0.175698
    10  C    0.054260
    11  H    0.120688
    12  H    0.079719
    13  C   -1.023718
    14  H    0.158017
    15  H    0.117852
    16  C    0.686303
    17  H    0.154700
    18  C   -0.624196
    19  H    0.137571
    20  H    0.162142
    21  H    0.123025
    22  C   -0.676652
    23  H    0.193459
    24  H    0.193656
    25  C   -0.546631
    26  H    0.130171
    27  H    0.143018
    28  O   -0.072158
    29  O   -0.202264
    30  H    0.267457
 Sum of Mulliken atomic charges =   0.00000

 Dipole moment (field-independent basis, Debye):
    X=              0.2711    Y=              0.2521    Z=              1.2419  Tot=              1.2959
 Quadrupole moment (field-independent basis, Debye-Ang):
   XX=            -75.2962   YY=            -66.6246   ZZ=            -72.5529
   XY=             -1.1231   XZ=             -2.7112   YZ=             -0.7837

  Exact polarizability: 139.705   4.483 119.204  -3.588   1.005 107.530
 Approx polarizability: 163.268   2.566 165.086  -4.497  -3.630 162.043

                     1                      2                      3
                     A                      A                      A
 Frequencies --    33.2494                33.7834                66.0091
 Red. masses --     4.4380                 3.0304                 4.2075
 Frc consts  --     0.0029                 0.0020                 0.0108
 IR Inten    --     0.3372                 0.2437                 2.7179

                     4                      5                      6
                     A                      A                      A
 Frequencies --    92.5576               100.5446               108.6383
 Red. masses --     2.9084                 3.3606                 1.1055
 Frc consts  --     0.0147                 0.0200                 0.0077
 IR Inten    --     0.1153                 0.5655                 1.6168

                     7                      8                      9
                     A                      A                      A
 Frequencies --   138.0244               186.4909               204.5231
 Red. masses --     1.7961                 2.5150                 1.1582
 Frc consts  --     0.0202                 0.0515                 0.0285
 IR Inten    --     0.0572                 1.2922               106.1658

                    10                     11                     12
                     A                      A                      A
 Frequencies --   212.4133               223.1501               242.0772
 Red. masses --     1.6020                 1.7700                 2.4125
 Frc consts  --     0.0426                 0.0519                 0.0833
 IR Inten    --     6.1659                 2.9641                 4.1863

                    13                     14                     15
                     A                      A                      A
 Frequencies --   246.1298               252.4855               341.3294
 Red. masses --     1.2071                 2.3916                 2.3456
 Frc consts  --     0.0431                 0.0898                 0.1610
 IR Inten    --     1.2539                 6.7477                 0.9354

                    16                     17                     18
                     A                      A                      A
 Frequencies --   368.6224               398.2470               446.1040
 Red. masses --     2.4620                 2.1599                 2.2393
 Frc consts  --     0.1971                 0.2018                 0.2626
 IR Inten    --     3.5906                 6.0475                 0.1944

                    19                     20                     21
                     A                      A                      A
 Frequencies --   452.9562               492.2882               555.4586
 Red. masses --     1.9792                 2.3494                 1.9557
 Frc consts  --     0.2393                 0.3355                 0.3555
 IR Inten    --     2.3793                12.1059                36.4328

                    22                     23                     24
                     A                      A                      A
 Frequencies --   617.8454               745.0847               782.8739
 Red. masses --     2.4770                 1.1440                 3.3143
 Frc consts  --     0.5571                 0.3742                 1.1968
 IR Inten    --     3.9528                 4.4247                 2.6802

                    25                     26                     27
                     A                      A                      A
 Frequencies --   828.9596               848.2084               861.9980
 Red. masses --     1.7880                 2.1769                 2.6371
 Frc consts  --     0.7239                 0.9228                 1.1545
 IR Inten    --     8.2736                 1.1399                10.6398

                    28                     29                     30
                     A                      A                      A
 Frequencies --   922.3274               934.7502               940.9196
 Red. masses --     1.4138                 1.7584                 2.5675
 Frc consts  --     0.7086                 0.9053                 1.3393
 IR Inten    --     0.2437                 0.9199                 1.4579

                    31                     32                     33
                     A                      A                      A
 Frequencies --   960.2184               983.5727              1001.0548
 Red. masses --     1.6175                 1.6867                 2.1902
 Frc consts  --     0.8787                 0.9614                 1.2931
 IR Inten    --     0.9173                 3.8951                 8.7394

                    34                     35                     36
                     A                      A                      A
 Frequencies --  1009.1434              1040.6669              1057.6655
 Red. masses --     2.8998                 1.5938                 2.3849
 Frc consts  --     1.7399                 1.0170                 1.5719
 IR Inten    --    14.5253                 5.0252                 0.4603

                    37                     38                     39
                     A                      A                      A
 Frequencies --  1065.5735              1126.4088              1134.8084
 Red. masses --     2.5301                 1.7773                 1.7270
 Frc consts  --     1.6926                 1.3286                 1.3104
 IR Inten    --     0.2823                 0.8261                 1.9086

                    40                     41                     42
                     A                      A                      A
 Frequencies --  1158.8616              1190.0520              1217.0209
 Red. masses --     2.1719                 2.2624                 1.5679
 Frc consts  --     1.7185                 1.8878                 1.3683
 IR Inten    --     0.8137                 1.8034                 2.3211

                    43                     44                     45
                     A                      A                      A
 Frequencies --  1268.6439              1288.0267              1302.5330
 Red. masses --     1.2453                 1.2159                 1.2016
 Frc consts  --     1.1809                 1.1885                 1.2011
 IR Inten    --     0.1592                 3.1190                 1.5820

                    46                     47                     48
                     A                      A                      A
 Frequencies --  1311.2896              1326.1156              1341.8928
 Red. masses --     1.2385                 1.1809                 1.2409
 Frc consts  --     1.2547                 1.2236                 1.3165
 IR Inten    --     0.7281                 2.5943                 2.6557

                    49                     50                     51
                     A                      A                      A
 Frequencies --  1359.5982              1365.8598              1371.4785
 Red. masses --     1.1467                 1.3762                 1.4006
 Frc consts  --     1.2489                 1.5127                 1.5522
 IR Inten    --    31.0976                 5.7630                 5.8164

                    52                     53                     54
                     A                      A                      A
 Frequencies --  1380.1426              1393.9057              1395.6785
 Red. masses --     1.4432                 1.2421                 1.3338
 Frc consts  --     1.6197                 1.4219                 1.5308
 IR Inten    --     0.3987                16.8993                 1.3089

                    55                     56                     57
                     A                      A                      A
 Frequencies --  1402.5730              1417.4937              1458.1709
 Red. masses --     1.4134                 1.2559                 1.1759
 Frc consts  --     1.6382                 1.4867                 1.4731
 IR Inten    --     3.5103                12.7601                 2.2074

                    58                     59                     60
                     A                      A                      A
 Frequencies --  1463.9115              1485.4242              1487.0425
 Red. masses --     1.0914                 1.0742                 1.0809
 Frc consts  --     1.3781                 1.3965                 1.4083
 IR Inten    --     6.9794                 0.8793                 0.6057

                    61                     62                     63
                     A                      A                      A
 Frequencies --  1492.8682              1497.9552              1498.4277
 Red. masses --     1.0478                 1.0545                 1.0572
 Frc consts  --     1.3758                 1.3941                 1.3985
 IR Inten    --     7.3096                 2.4071                 9.6128

                    64                     65                     66
                     A                      A                      A
 Frequencies --  1503.8349              1508.2703              2968.7253
 Red. masses --     1.0691                 1.0846                 1.0811
 Frc consts  --     1.4245                 1.4537                 5.6136
 IR Inten    --     2.8386                11.2449                13.9484

                    67                     68                     69
                     A                      A                      A
 Frequencies --  2973.8875              2989.9840              2998.3067
 Red. masses --     1.0814                 1.0674                 1.0616
 Frc consts  --     5.6349                 5.6223                 5.6228
 IR Inten    --    18.6017                 5.9963                34.0258

                    70                     71                     72
                     A                      A                      A
 Frequencies --  3006.2911              3014.7545              3022.7215
 Red. masses --     1.0672                 1.0355                 1.0416
 Frc consts  --     5.6827                 5.5453                 5.6072
 IR Inten    --    40.8578                46.9900                41.0780

                    73                     74                     75
                     A                      A                      A
 Frequencies --  3027.6996              3029.5406              3053.8281
 Red. masses --     1.0742                 1.0763                 1.0891
 Frc consts  --     5.8018                 5.8204                 5.9842
 IR Inten    --    12.7285                37.0106                13.4253

                    76                     77                     78
                     A                      A                      A
 Frequencies --  3067.9458              3075.0380              3079.2310
 Red. masses --     1.1010                 1.1037                 1.1013
 Frc consts  --     6.1054                 6.1489                 6.1524
 IR Inten    --    37.8823                28.9300                47.5696

                    79                     80                     81
                     A                      A                      A
 Frequencies --  3082.4696              3090.0751              3098.1006
 Red. masses --     1.1007                 1.1021                 1.1015
 Frc consts  --     6.1620                 6.2000                 6.2289
 IR Inten    --    42.9775                35.6871                27.7140

                    82                     83                     84
                     A                      A                      A
 Frequencies --  3123.7335              3224.7282              3778.9777
 Red. masses --     1.0508                 1.1181                 1.0686
 Frc consts  --     6.0412                 6.8504                 8.9912
 IR Inten    --    15.7313                17.3828                47.5313

 - Thermochemistry -
 -------------------
 Temperature   298.150 Kelvin.  Pressure   1.00000 Atm.
 Atom     1 has atomic number  6 and mass  12.00000

 Molecular mass:   159.13850 amu.
 Principal axes and moments of inertia in atomic units:
                           1         2         3
     Eigenvalues --   979.936504119.441684678.43284
           X            0.99989   0.01406  -0.00482
           Y           -0.01393   0.99956   0.02625
           Z            0.00519  -0.02618   0.99964
 This molecule is an asymmetric top.
 Rotational symmetry number  1.
 Warning -- assumption of classical behavior for rotation
           may cause significant error
 Rotational temperatures (Kelvin)      0.08839     0.02103     0.01851
 Rotational constants (GHZ):           1.84169     0.43810     0.38576
 Zero-point vibrational energy     697723.6 (Joules/Mol)
                                  166.75993 (Kcal/Mol)
 Warning -- explicit consideration of  22 degrees of freedom as
           vibrations may cause significant error
 Vibrational temperatures:     47.84    48.61    94.97   133.17   144.66
          (Kelvin)            156.31   198.59   268.32   294.26   305.62
                              321.06   348.29   354.13   363.27   491.10
                              530.36   572.99   641.84   651.70   708.29
                              799.18   888.94  1072.01  1126.38  1192.69
                             1220.38  1240.22  1327.02  1344.90  1353.77
                             1381.54  1415.14  1440.29  1451.93  1497.29
                             1521.74  1533.12  1620.65  1632.73  1667.34
                             1712.22  1751.02  1825.29  1853.18  1874.05
                             1886.65  1907.98  1930.68  1956.16  1965.17
                             1973.25  1985.71  2005.52  2008.07  2017.99
                             2039.45  2097.98  2106.24  2137.19  2139.52
                             2147.90  2155.22  2155.90  2163.68  2170.06
                             4271.33  4278.76  4301.91  4313.89  4325.38
                             4337.55  4349.02  4356.18  4358.83  4393.77
                             4414.08  4424.29  4430.32  4434.98  4445.92
                             4457.47  4494.35  4639.66  5437.10

 Zero-point correction=                           0.265749 (Hartree/Particle)
 Thermal correction to Energy=                    0.280819
 Thermal correction to Enthalpy=                  0.281763
 Thermal correction to Gibbs Free Energy=         0.222296
 Sum of electronic and zero-point Energies=           -504.578403
 Sum of electronic and thermal Energies=              -504.563332
 Sum of electronic and thermal Enthalpies=            -504.562388
 Sum of electronic and thermal Free Energies=         -504.621856

                     E (Thermal)             CV                S
                      KCal/Mol        Cal/Mol-Kelvin    Cal/Mol-Kelvin
 Total                  176.217             53.669            125.160
 Electronic               0.000              0.000              1.377
 Translational            0.889              2.981             41.103
 Rotational               0.889              2.981             31.313
 Vibrational            174.439             47.708             51.366
 Vibration     1          0.594              1.983              5.625
 Vibration     2          0.594              1.983              5.594
 Vibration     3          0.597              1.970              4.269
 Vibration     4          0.602              1.954              3.605
 Vibration     5          0.604              1.949              3.444
 Vibration     6          0.606              1.942              3.293
 Vibration     7          0.614              1.915              2.831
 Vibration     8          0.632              1.858              2.262
 Vibration     9          0.640              1.833              2.092
 Vibration    10          0.643              1.822              2.023
 Vibration    11          0.649              1.806              1.933
 Vibration    12          0.658              1.776              1.788
 Vibration    13          0.661              1.769              1.758
 Vibration    14          0.664              1.759              1.713
 Vibration    15          0.721              1.593              1.206
 Vibration    16          0.741              1.537              1.086
 Vibration    17          0.765              1.474              0.969
 Vibration    18          0.805              1.369              0.808
 Vibration    19          0.812              1.354              0.787
 Vibration    20          0.848              1.267              0.678
 Vibration    21          0.911              1.128              0.533
 Vibration    22          0.978              0.994              0.420

 Optimization completed.
    -- Stationary point found.
 Normal termination of Gaussian 09 at Fri Feb  7 03:03:49 2014.
