 Gaussian 09, Revision C.01,

 --------------------------------------------------
 #p stable=(opt,xqc) ub3lyp/6-311++g(d,p) guess=mix
 --------------------------------------------------

 (Enter /usr/caen/gaussian-09revc/g09/l101.exe)
 -----------------------------------------------------------------
 C9H18OOH_1_26_b using B3LYP/6-311++g(d,p) to do opt and cal. freq
 -----------------------------------------------------------------
 Charge =  0 Multiplicity = 2

 SCF Done:  E(UB3LYP) =  -504.816563877     A.U. after   16 cycles
 Normal termination of Gaussian 09 at Thu Feb  6 20:08:05 2014.
 Gaussian 09:  EM64L-G09RevC.01 23-Sep-2011

 -------------------------------------------------------------
 #p UB3LYP/6-311++G(d,p) opt=calcfc freq geom=check guess=read
 -------------------------------------------------------------

 ---------------------
 optimization and freq
 ---------------------
 Structure from the checkpoint file:  C9H18OOH_1_26_b.chk
 Charge =  0 Multiplicity = 2

 SCF Done:  E(UB3LYP) =  -504.816563876     A.U. after    2 cycles
 SCF Done:  E(UB3LYP) =  -504.836552613     A.U. after   15 cycles
 SCF Done:  E(UB3LYP) =  -504.841330238     A.U. after   15 cycles
 SCF Done:  E(UB3LYP) =  -504.831114584     A.U. after   17 cycles
 SCF Done:  E(UB3LYP) =  -504.833815035     A.U. after   11 cycles
 SCF Done:  E(UB3LYP) =  -504.836188161     A.U. after   11 cycles
 SCF Done:  E(UB3LYP) =  -504.838246104     A.U. after   10 cycles
 SCF Done:  E(UB3LYP) =  -504.841344799     A.U. after   13 cycles
 SCF Done:  E(UB3LYP) =  -504.842618219     A.U. after   13 cycles
 SCF Done:  E(UB3LYP) =  -504.842701134     A.U. after   12 cycles
 SCF Done:  E(UB3LYP) =  -504.843150706     A.U. after   12 cycles
 SCF Done:  E(UB3LYP) =  -504.843317151     A.U. after   11 cycles
 SCF Done:  E(UB3LYP) =  -504.843350225     A.U. after   11 cycles
 SCF Done:  E(UB3LYP) =  -504.843353673     A.U. after   10 cycles
 SCF Done:  E(UB3LYP) =  -504.843355789     A.U. after   10 cycles
 SCF Done:  E(UB3LYP) =  -504.843356020     A.U. after   10 cycles
 SCF Done:  E(UB3LYP) =  -504.843356142     A.U. after    8 cycles
 SCF Done:  E(UB3LYP) =  -504.843356191     A.U. after    8 cycles
 Optimization completed.
    -- Stationary point found.
 Normal termination of Gaussian 09 at Thu Feb  6 21:21:26 2014.

 ----------------------------------------------------------------------
 #P Geom=AllCheck Guess=TCheck SCRF=Check GenChk UB3LYP/6-311++G(d,p) F
 req
 ----------------------------------------------------------------------

 Structure from the checkpoint file:  C9H18OOH_1_26_b.chk
 ---------------------
 optimization and freq
 ---------------------
 Charge =  0 Multiplicity = 2

                         Standard orientation:
 ---------------------------------------------------------------------
 Center     Atomic      Atomic             Coordinates (Angstroms)
 Number     Number       Type             X           Y           Z
 ---------------------------------------------------------------------
      1          6           0       -3.118267   -1.737293   -0.224530
      2          1           0       -3.057575   -2.816113   -0.306396
      3          1           0       -3.872681   -1.219701   -0.803507
      4          6           0       -2.043496   -0.977070    0.481937
      5          1           0       -1.821393   -1.488583    1.432678
      6          6           0       -0.717988   -0.990996   -0.335279
      7          1           0       -0.511112   -2.034192   -0.601135
      8          1           0       -0.873252   -0.455155   -1.275344
      9          6           0        0.499582   -0.415861    0.400264
     10          1           0        0.606307   -0.913408    1.374280
     11          1           0        0.334716    0.645094    0.605939
     12          6           0        1.799124   -0.590735   -0.396484
     13          1           0        1.706289   -0.071648   -1.360214
     14          1           0        1.921358   -1.654562   -0.636539
     15          6           0        3.077362   -0.101941    0.311675
     16          1           0        3.120729   -0.593325    1.293790
     17          6           0        4.324714   -0.524166   -0.477735
     18          1           0        4.328184   -0.067845   -1.473901
     19          1           0        5.241890   -0.213727    0.031821
     20          1           0        4.365423   -1.609530   -0.609560
     21          6           0       -2.531807    0.422415    0.889589
     22          1           0       -3.405380    0.321433    1.542125
     23          1           0       -1.763380    0.987125    1.425338
     24          6           0        3.078452    1.416144    0.543611
     25          1           0        3.997955    1.734099    1.044199
     26          1           0        3.017155    1.953194   -0.409754
     27          1           0        2.238412    1.739666    1.163004
     28          8           0       -3.043237    1.220078   -0.178916
     29          8           0       -1.910287    1.784124   -0.909419
     30          1           0       -2.151499    2.720586   -0.888436
 ---------------------------------------------------------------------

 SCF Done:  E(UB3LYP) =  -504.843356191     A.U. after    1 cycles

 The electronic state is 2-A.
 Alpha  occ. eigenvalues --  -19.18626 -19.18402 -10.22520 -10.18334 -10.17350
 Alpha  occ. eigenvalues --  -10.17211 -10.16418 -10.16182 -10.16060 -10.15539
 Alpha  occ. eigenvalues --  -10.15522  -1.12512  -0.92740  -0.82022  -0.80085
 Alpha  occ. eigenvalues --   -0.74725  -0.68290  -0.67523  -0.67053  -0.60193
 Alpha  occ. eigenvalues --   -0.56873  -0.55682  -0.53351  -0.49820  -0.47421
 Alpha  occ. eigenvalues --   -0.46965  -0.45163  -0.44065  -0.43707  -0.42294
 Alpha  occ. eigenvalues --   -0.40362  -0.39643  -0.38586  -0.38394  -0.36800
 Alpha  occ. eigenvalues --   -0.36310  -0.35471  -0.34504  -0.33426  -0.32090
 Alpha  occ. eigenvalues --   -0.31908  -0.31630  -0.31274  -0.26928  -0.20642
 Alpha virt. eigenvalues --   -0.01829  -0.00736  -0.00073   0.00561   0.00678
 Alpha virt. eigenvalues --    0.01818   0.02142   0.02387   0.03403   0.03644
 Alpha virt. eigenvalues --    0.03942   0.04568   0.05242   0.05878   0.06003

  Beta  occ. eigenvalues --  -19.18623 -19.18402 -10.22504 -10.18410 -10.17208
  Beta  occ. eigenvalues --  -10.16285 -10.16158 -10.16056 -10.15968 -10.15539
  Beta  occ. eigenvalues --  -10.15521  -1.12509  -0.92725  -0.81814  -0.79655
  Beta  occ. eigenvalues --   -0.74311  -0.68288  -0.67259  -0.65457  -0.59457
  Beta  occ. eigenvalues --   -0.56566  -0.55579  -0.53147  -0.49619  -0.47373
  Beta  occ. eigenvalues --   -0.46805  -0.45019  -0.43902  -0.43648  -0.42044
  Beta  occ. eigenvalues --   -0.40147  -0.39191  -0.38407  -0.38121  -0.36659
  Beta  occ. eigenvalues --   -0.36218  -0.35216  -0.34338  -0.33290  -0.32043
  Beta  occ. eigenvalues --   -0.31884  -0.31523  -0.30955  -0.26878
  Beta virt. eigenvalues --   -0.06242  -0.01830  -0.00707  -0.00035   0.00577
  Beta virt. eigenvalues --    0.00714   0.01858   0.02178   0.02431   0.03406
  Beta virt. eigenvalues --    0.03642   0.03944   0.04679   0.05280   0.05879

 Mulliken atomic charges:
              1
     1  C   -0.494706
     2  H    0.132445
     3  H    0.150880
     4  C    0.636642
     5  H    0.155980
     6  C   -0.656422
     7  H    0.157710
     8  H    0.191849
     9  C    0.124734
    10  H    0.137650
    11  H    0.012693
    12  C   -0.681769
    13  H    0.146565
    14  H    0.108379
    15  C    0.510761
    16  H    0.132877
    17  C   -0.620926
    18  H    0.136630
    19  H    0.149530
    20  H    0.130553
    21  C   -0.724452
    22  H    0.201872
    23  H    0.187927
    24  C   -0.643262
    25  H    0.141835
    26  H    0.137484
    27  H    0.146367
    28  O   -0.081119
    29  O   -0.199341
    30  H    0.270634
 Sum of Mulliken atomic charges =   0.00000

 Dipole moment (field-independent basis, Debye):
    X=              0.5371    Y=              0.6356    Z=              1.2410  Tot=              1.4941
 Quadrupole moment (field-independent basis, Debye-Ang):
   XX=            -77.3842   YY=            -66.5846   ZZ=            -72.6092
   XY=             -1.8668   XZ=             -2.1679   YZ=             -0.8862

  Exact polarizability: 142.107   6.171 117.676  -2.811   0.395 107.496
 Approx polarizability: 166.630   5.032 162.074  -3.259  -4.382 162.105

                     1                      2                      3
                     A                      A                      A
 Frequencies --    27.5336                33.6049                69.3957
 Red. masses --     2.6657                 5.0098                 4.1276
 Frc consts  --     0.0012                 0.0033                 0.0117
 IR Inten    --     0.0947                 0.2382                 2.0615

                     4                      5                      6
                     A                      A                      A
 Frequencies --    93.0447               107.3324               116.0253
 Red. masses --     3.1974                 3.6977                 1.7401
 Frc consts  --     0.0163                 0.0251                 0.0138
 IR Inten    --     0.1275                 0.5236                 0.0556

                     7                      8                      9
                     A                      A                      A
 Frequencies --   143.3504               189.6910               193.7699
 Red. masses --     1.0475                 1.1230                 2.4439
 Frc consts  --     0.0127                 0.0238                 0.0541
 IR Inten    --     0.7861               115.0922                 6.6057

                    10                     11                     12
                     A                      A                      A
 Frequencies --   219.1979               227.5601               241.8567
 Red. masses --     2.2918                 1.1477                 2.8919
 Frc consts  --     0.0649                 0.0350                 0.0997
 IR Inten    --     0.0952                 0.3471                 0.6739

                    13                     14                     15
                     A                      A                      A
 Frequencies --   250.8494               256.7628               351.3326
 Red. masses --     3.4709                 1.1749                 3.0235
 Frc consts  --     0.1287                 0.0456                 0.2199
 IR Inten    --     6.3339                 0.1913                 0.5027

                    16                     17                     18
                     A                      A                      A
 Frequencies --   366.2273               409.2567               441.2742
 Red. masses --     2.1076                 2.2882                 2.0625
 Frc consts  --     0.1665                 0.2258                 0.2366
 IR Inten    --     3.4872                 0.4352                 2.2694

                    19                     20                     21
                     A                      A                      A
 Frequencies --   449.5351               493.7541               553.5263
 Red. masses --     2.0319                 2.3503                 1.8827
 Frc consts  --     0.2419                 0.3376                 0.3399
 IR Inten    --     5.3762                 1.5684                55.9638

                    22                     23                     24
                     A                      A                      A
 Frequencies --   622.4638               743.6433               779.4183
 Red. masses --     2.4342                 1.1381                 3.3914
 Frc consts  --     0.5557                 0.3708                 1.2139
 IR Inten    --     0.1823                 4.1955                 4.5427

                    25                     26                     27
                     A                      A                      A
 Frequencies --   815.7058               841.9351               863.8107
 Red. masses --     2.0512                 1.8315                 3.2323
 Frc consts  --     0.8041                 0.7649                 1.4210
 IR Inten    --     4.7341                 4.1119                10.7340

                    28                     29                     30
                     A                      A                      A
 Frequencies --   927.4422               936.9162               941.1696
 Red. masses --     1.2797                 1.8115                 2.0443
 Frc consts  --     0.6485                 0.9369                 1.0669
 IR Inten    --     1.5278                 0.5220                 1.0035

                    31                     32                     33
                     A                      A                      A
 Frequencies --   963.1138               968.2278               985.0101
 Red. masses --     1.4616                 1.8757                 2.8900
 Frc consts  --     0.7988                 1.0360                 1.6521
 IR Inten    --     1.3758                 8.3396                 8.9610

                    34                     35                     36
                     A                      A                      A
 Frequencies --  1024.7162              1032.0003              1052.9762
 Red. masses --     3.0583                 1.7652                 2.2954
 Frc consts  --     1.8921                 1.1076                 1.4995
 IR Inten    --     0.1296                 1.1630                 0.8139

                    37                     38                     39
                     A                      A                      A
 Frequencies --  1094.8509              1130.8442              1140.6800
 Red. masses --     2.5235                 1.7039                 1.9801
 Frc consts  --     1.7822                 1.2838                 1.5180
 IR Inten    --    11.6898                 2.1516                 1.2016

                    40                     41                     42
                     A                      A                      A
 Frequencies --  1157.0350              1188.8282              1218.8246
 Red. masses --     2.3025                 1.7596                 1.6586
 Frc consts  --     1.8161                 1.4652                 1.4517
 IR Inten    --     2.3466                 5.0739                 1.3497

                    43                     44                     45
                     A                      A                      A
 Frequencies --  1256.0041              1283.1280              1303.0021
 Red. masses --     1.1935                 1.2581                 1.2075
 Frc consts  --     1.1093                 1.2204                 1.2079
 IR Inten    --     0.8898                 4.4552                 2.0432

                    46                     47                     48
                     A                      A                      A
 Frequencies --  1315.8225              1332.5196              1342.3502
 Red. masses --     1.2356                 1.1142                 1.2924
 Frc consts  --     1.2604                 1.1656                 1.3721
 IR Inten    --     2.7444                 0.5394                 1.4736

                    49                     50                     51
                     A                      A                      A
 Frequencies --  1357.5598              1364.7883              1370.5501
 Red. masses --     1.2696                 1.2579                 1.3427
 Frc consts  --     1.3785                 1.3805                 1.4860
 IR Inten    --    17.4192                18.5064                 2.1772

                    52                     53                     54
                     A                      A                      A
 Frequencies --  1380.6220              1391.7088              1396.6986
 Red. masses --     1.4660                 1.4280                 1.2945
 Frc consts  --     1.6464                 1.6295                 1.4879
 IR Inten    --     2.8310                12.1752                15.7486

                    55                     56                     57
                     A                      A                      A
 Frequencies --  1401.4460              1420.5827              1452.9054
 Red. masses --     1.2692                 1.2370                 1.1755
 Frc consts  --     1.4687                 1.4708                 1.4621
 IR Inten    --    10.5873                 5.9815                 5.0426

                    58                     59                     60
                     A                      A                      A
 Frequencies --  1465.5579              1480.1738              1486.7952
 Red. masses --     1.1054                 1.0717                 1.0782
 Frc consts  --     1.3988                 1.3833                 1.4043
 IR Inten    --     6.9928                 0.2476                 3.5536

                    61                     62                     63
                     A                      A                      A
 Frequencies --  1490.1042              1495.8789              1504.8276
 Red. masses --     1.0450                 1.0586                 1.0880
 Frc consts  --     1.3671                 1.3956                 1.4517
 IR Inten    --     0.7592                 1.5431                 3.9468

                    64                     65                     66
                     A                      A                      A
 Frequencies --  1505.6451              1511.6795              2955.0643
 Red. masses --     1.0554                 1.0546                 1.0805
 Frc consts  --     1.4097                 1.4199                 5.5590
 IR Inten    --     4.7551                16.8316                21.0975

                    67                     68                     69
                     A                      A                      A
 Frequencies --  2982.4913              2988.5294              2996.0257
 Red. masses --     1.0798                 1.0665                 1.0654
 Frc consts  --     5.6590                 5.6120                 5.6346
 IR Inten    --     6.4585                 1.7943                50.5678

                    70                     71                     72
                     A                      A                      A
 Frequencies --  3011.4052              3016.9006              3018.4483
 Red. masses --     1.0359                 1.0428                 1.0623
 Frc consts  --     5.5349                 5.5921                 5.7025
 IR Inten    --    34.3905                31.7990                34.2827

                    73                     74                     75
                     A                      A                      A
 Frequencies --  3024.3219              3033.7139              3063.9040
 Red. masses --     1.0982                 1.0585                 1.0898
 Frc consts  --     5.9182                 5.7397                 6.0277
 IR Inten    --    24.2350                30.1904                16.0752

                    76                     77                     78
                     A                      A                      A
 Frequencies --  3069.9183              3076.2960              3079.1399
 Red. masses --     1.1004                 1.0999                 1.1037
 Frc consts  --     6.1100                 6.1327                 6.1656
 IR Inten    --     6.9253                64.5259                35.8603

                    79                     80                     81
                     A                      A                      A
 Frequencies --  3080.4406              3082.8865              3090.7056
 Red. masses --     1.1018                 1.1011                 1.0990
 Frc consts  --     6.1600                 6.1658                 6.1851
 IR Inten    --    31.9113                64.1629                39.4758

                    82                     83                     84
                     A                      A                      A
 Frequencies --  3137.4566              3243.5394              3780.0032
 Red. masses --     1.0506                 1.1187                 1.0686
 Frc consts  --     6.0931                 6.9342                 8.9959
 IR Inten    --    15.5369                 6.9183                49.7209

 - Thermochemistry -
 -------------------
 Temperature   298.150 Kelvin.  Pressure   1.00000 Atm.
 Atom     1 has atomic number  6 and mass  12.00000

 Molecular mass:   159.13850 amu.
 Principal axes and moments of inertia in atomic units:
                           1         2         3
     Eigenvalues --   971.980934182.109354721.59939
           X            0.99991   0.01261  -0.00408
           Y           -0.01249   0.99948   0.02981
           Z            0.00445  -0.02976   0.99955
 This molecule is an asymmetric top.
 Rotational symmetry number  1.
 Warning -- assumption of classical behavior for rotation
           may cause significant error
 Rotational temperatures (Kelvin)      0.08911     0.02071     0.01834
 Rotational constants (GHZ):           1.85677     0.43154     0.38223
 Zero-point vibrational energy     698057.1 (Joules/Mol)
                                  166.83965 (Kcal/Mol)
 Warning -- explicit consideration of  21 degrees of freedom as
           vibrations may cause significant error
 Vibrational temperatures:     39.61    48.35    99.84   133.87   154.43
          (Kelvin)            166.93   206.25   272.92   278.79   315.38
                              327.41   347.98   360.92   369.42   505.49
                              526.92   588.83   634.89   646.78   710.40
                              796.40   895.59  1069.94  1121.41  1173.62
                             1211.36  1242.83  1334.38  1348.01  1354.13
                             1385.70  1393.06  1417.21  1474.34  1484.82
                             1515.00  1575.24  1627.03  1641.18  1664.71
                             1710.46  1753.61  1807.11  1846.13  1874.73
                             1893.17  1917.20  1931.34  1953.22  1963.62
                             1971.91  1986.40  2002.36  2009.54  2016.37
                             2043.90  2090.40  2108.61  2129.64  2139.16
                             2143.92  2152.23  2165.11  2166.28  2174.97
                             4251.67  4291.13  4299.82  4310.61  4332.74
                             4340.64  4342.87  4351.32  4364.83  4408.27
                             4416.92  4426.10  4430.19  4432.06  4435.58
                             4446.83  4514.09  4666.72  5438.57

 Zero-point correction=                           0.265876 (Hartree/Particle)
 Thermal correction to Energy=                    0.280888
 Thermal correction to Enthalpy=                  0.281833
 Thermal correction to Gibbs Free Energy=         0.222443
 Sum of electronic and zero-point Energies=           -504.577480
 Sum of electronic and thermal Energies=              -504.562468
 Sum of electronic and thermal Enthalpies=            -504.561524
 Sum of electronic and thermal Free Energies=         -504.620913

                     E (Thermal)             CV                S
                      KCal/Mol        Cal/Mol-Kelvin    Cal/Mol-Kelvin
 Total                  176.260             53.629            124.996
 Electronic               0.000              0.000              1.377
 Translational            0.889              2.981             41.103
 Rotational               0.889              2.981             31.329
 Vibrational            174.483             47.668             51.187
 Vibration     1          0.593              1.984              6.000
 Vibration     2          0.594              1.983              5.604
 Vibration     3          0.598              1.969              4.170
 Vibration     4          0.602              1.954              3.595
 Vibration     5          0.606              1.943              3.317
 Vibration     6          0.608              1.936              3.166
 Vibration     7          0.616              1.910              2.759
 Vibration     8          0.633              1.854              2.231
 Vibration     9          0.635              1.849              2.191
 Vibration    10          0.647              1.812              1.966
 Vibration    11          0.651              1.799              1.898
 Vibration    12          0.658              1.776              1.789
 Vibration    13          0.663              1.761              1.725
 Vibration    14          0.666              1.751              1.684
 Vibration    15          0.728              1.573              1.160
 Vibration    16          0.739              1.542              1.096
 Vibration    17          0.774              1.450              0.929
 Vibration    18          0.801              1.380              0.823
 Vibration    19          0.808              1.362              0.797
 Vibration    20          0.849              1.264              0.674
 Vibration    21          0.909              1.132              0.537

 Normal termination of Gaussian 09 at Thu Feb  6 21:53:44 2014.
