 Gaussian 09, Revision C.01,

 --------------------------------------------------
 #p stable=(opt,xqc) ub3lyp/6-311++g(d,p) guess=mix
 --------------------------------------------------

 (Enter /usr/caen/gaussian-09revc/g09/l101.exe)
 -----------------------------------------------------------------
 C9H18OOH_1_26_g using B3LYP/6-311++g(d,p) to do opt and cal. freq
 -----------------------------------------------------------------
 Charge =  0 Multiplicity = 2

 SCF Done:  E(UB3LYP) =  -504.828105142     A.U. after   19 cycles
 Normal termination of Gaussian 09 at Thu Feb  6 23:52:51 2014.
 Gaussian 09:  EM64L-G09RevC.01 23-Sep-2011

 -------------------------------------------------------------
 #p UB3LYP/6-311++G(d,p) opt=calcfc freq geom=check guess=read
 -------------------------------------------------------------

 ---------------------
 optimization and freq
 ---------------------
 Structure from the checkpoint file:  C9H18OOH_1_26_g.chk
 Charge =  0 Multiplicity = 2

 SCF Done:  E(UB3LYP) =  -504.828105142     A.U. after    2 cycles
 SCF Done:  E(UB3LYP) =  -504.847597008     A.U. after   15 cycles
 SCF Done:  E(UB3LYP) =  -504.852160819     A.U. after   15 cycles
 SCF Done:  E(UB3LYP) =  -504.840124435     A.U. after   13 cycles
 SCF Done:  E(UB3LYP) =  -504.842989605     A.U. after   11 cycles
 SCF Done:  E(UB3LYP) =  -504.845546695     A.U. after   10 cycles
 SCF Done:  E(UB3LYP) =  -504.847811890     A.U. after   10 cycles
 SCF Done:  E(UB3LYP) =  -504.852160880     A.U. after   13 cycles
 SCF Done:  E(UB3LYP) =  -504.853558057     A.U. after   12 cycles
 SCF Done:  E(UB3LYP) =  -504.854604745     A.U. after   12 cycles
 SCF Done:  E(UB3LYP) =  -504.854634958     A.U. after   12 cycles
 SCF Done:  E(UB3LYP) =  -504.854554962     A.U. after   13 cycles
 SCF Done:  E(UB3LYP) =  -504.854652042     A.U. after   12 cycles
 SCF Done:  E(UB3LYP) =  -504.854655654     A.U. after   10 cycles
 SCF Done:  E(UB3LYP) =  -504.854655638     A.U. after   10 cycles
 SCF Done:  E(UB3LYP) =  -504.854655915     A.U. after    9 cycles
 SCF Done:  E(UB3LYP) =  -504.854656005     A.U. after    8 cycles
 SCF Done:  E(UB3LYP) =  -504.854656009     A.U. after    8 cycles
 Optimization completed.
    -- Stationary point found.
 Normal termination of Gaussian 09 at Fri Feb  7 01:23:06 2014.

 ----------------------------------------------------------------------
 #P Geom=AllCheck Guess=TCheck SCRF=Check GenChk UB3LYP/6-311++G(d,p) F
 req
 ----------------------------------------------------------------------

 Structure from the checkpoint file:  C9H18OOH_1_26_g.chk
 ---------------------
 optimization and freq
 ---------------------
 Charge =  0 Multiplicity = 2

                         Standard orientation:
 ---------------------------------------------------------------------
 Center     Atomic      Atomic             Coordinates (Angstroms)
 Number     Number       Type             X           Y           Z
 ---------------------------------------------------------------------
      1          6           0       -3.093760   -1.676611   -0.355624
      2          1           0       -2.790104   -2.666297   -0.707223
      3          1           0       -3.390778   -1.084216   -1.224669
      4          1           0       -3.976631   -1.802794    0.278914
      5          6           0       -1.948578   -0.993177    0.405579
      6          1           0       -1.705586   -1.612230    1.282675
      7          6           0       -0.678438   -0.906987   -0.463873
      8          1           0       -0.484145   -1.910634   -0.862884
      9          1           0       -0.875396   -0.265329   -1.328796
     10          6           0        0.579660   -0.416213    0.261568
     11          1           0        0.746299   -1.014285    1.166240
     12          1           0        0.441760    0.618115    0.588983
     13          6           0        1.844616   -0.493866   -0.625097
     14          1           0        1.640403    0.066887   -1.551200
     15          1           0        1.995967   -1.537085   -0.926678
     16          6           0        3.088294    0.034491    0.029984
     17          6           0        4.244888   -0.876692    0.289782
     18          1           0        4.896511   -0.978662   -0.597177
     19          1           0        4.883215   -0.505634    1.099019
     20          1           0        3.916644   -1.887588    0.551723
     21          6           0       -2.414878    0.344682    0.996000
     22          1           0       -3.276632    0.171264    1.650692
     23          1           0       -1.633361    0.835182    1.583566
     24          6           0        3.312208    1.513002    0.077037
     25          1           0        3.926124    1.807987    0.935155
     26          1           0        3.842953    1.872043   -0.823164
     27          1           0        2.371416    2.069278    0.126265
     28          8           0       -2.940519    1.276784    0.046634
     29          8           0       -1.817484    1.946185   -0.606001
     30          1           0       -2.068701    2.868475   -0.458641
 ---------------------------------------------------------------------

 SCF Done:  E(UB3LYP) =  -504.854656009     A.U. after    1 cycles

 The electronic state is 2-A.
 Alpha  occ. eigenvalues --  -19.18399 -19.18278 -10.22229 -10.17695 -10.17188
 Alpha  occ. eigenvalues --  -10.16248 -10.16078 -10.15988 -10.15918 -10.15870
 Alpha  occ. eigenvalues --  -10.15551  -1.12315  -0.92510  -0.81771  -0.79803
 Alpha  occ. eigenvalues --   -0.74662  -0.69098  -0.67869  -0.67468  -0.60438
 Alpha  occ. eigenvalues --   -0.56631  -0.53199  -0.53179  -0.49452  -0.46839
 Alpha  occ. eigenvalues --   -0.46579  -0.44616  -0.44184  -0.43628  -0.41582
 Alpha  occ. eigenvalues --   -0.40858  -0.40424  -0.38693  -0.37606  -0.36904
 Alpha  occ. eigenvalues --   -0.36358  -0.35776  -0.35051  -0.34704  -0.32743
 Alpha  occ. eigenvalues --   -0.32294  -0.31313  -0.31281  -0.26612  -0.16966
 Alpha virt. eigenvalues --   -0.01835  -0.00670  -0.00244   0.00645   0.00906
 Alpha virt. eigenvalues --    0.01699   0.02147   0.02683   0.03479   0.03955
 Alpha virt. eigenvalues --    0.04082   0.04359   0.05299   0.05341   0.05806

  Beta  occ. eigenvalues --  -19.18399 -19.18278 -10.22229 -10.17694 -10.16330
  Beta  occ. eigenvalues --  -10.16074 -10.16002 -10.15968 -10.15859 -10.15799
  Beta  occ. eigenvalues --  -10.15549  -1.12315  -0.92510  -0.81256  -0.78849
  Beta  occ. eigenvalues --   -0.74267  -0.68872  -0.67837  -0.67368  -0.60145
  Beta  occ. eigenvalues --   -0.56597  -0.53174  -0.51531  -0.49441  -0.46762
  Beta  occ. eigenvalues --   -0.46409  -0.44450  -0.43849  -0.42329  -0.41216
  Beta  occ. eigenvalues --   -0.40734  -0.40191  -0.38077  -0.37469  -0.36799
  Beta  occ. eigenvalues --   -0.36257  -0.35608  -0.34796  -0.34427  -0.32638
  Beta  occ. eigenvalues --   -0.32133  -0.31295  -0.30952  -0.26609
  Beta virt. eigenvalues --   -0.03696  -0.01812  -0.00624  -0.00167   0.00642
  Beta virt. eigenvalues --    0.00903   0.01704   0.02167   0.02745   0.03488
  Beta virt. eigenvalues --    0.03980   0.04121   0.04353   0.05319   0.05383

 Mulliken atomic charges:
              1
     1  C   -0.579227
     2  H    0.127981
     3  H    0.176121
     4  H    0.140801
     5  C    0.665923
     6  H    0.146171
     7  C   -0.645416
     8  H    0.140092
     9  H    0.181241
    10  C   -0.143104
    11  H    0.141171
    12  H    0.053180
    13  C   -0.883408
    14  H    0.151598
    15  H    0.141208
    16  C    0.944761
    17  C   -0.639352
    18  H    0.139066
    19  H    0.142639
    20  H    0.145022
    21  C   -0.674810
    22  H    0.197824
    23  H    0.188205
    24  C   -0.691565
    25  H    0.132341
    26  H    0.139998
    27  H    0.161075
    28  O   -0.072666
    29  O   -0.195864
    30  H    0.268993
 Sum of Mulliken atomic charges =   0.00000

 Dipole moment (field-independent basis, Debye):
    X=              0.2030    Y=              0.3640    Z=              1.1429  Tot=              1.2165
 Quadrupole moment (field-independent basis, Debye-Ang):
   XX=            -75.2351   YY=            -66.1643   ZZ=            -72.4815
   XY=             -0.2904   XZ=             -3.4073   YZ=              0.1193

  Exact polarizability: 143.756   5.790 121.256  -1.327  -1.330 106.437
 Approx polarizability: 168.797   4.716 165.559  -3.339  -5.143 159.702

                     1                      2                      3
                     A                      A                      A
 Frequencies --    22.8939                35.1899                52.8328
 Red. masses --     2.8205                 3.8491                 3.4366
 Frc consts  --     0.0009                 0.0028                 0.0057
 IR Inten    --     0.1187                 0.1654                 1.1946

                     4                      5                      6
                     A                      A                      A
 Frequencies --    69.9274                92.1380               102.2992
 Red. masses --     3.1592                 1.7485                 2.5100
 Frc consts  --     0.0091                 0.0087                 0.0155
 IR Inten    --     1.2284                 0.3714                 0.3851

                     7                      8                      9
                     A                      A                      A
 Frequencies --   116.4338               123.2601               181.9233
 Red. masses --     1.3984                 1.1014                 2.3114
 Frc consts  --     0.0112                 0.0099                 0.0451
 IR Inten    --     0.0340                 0.0127                 0.6907

                    10                     11                     12
                     A                      A                      A
 Frequencies --   193.9880               205.7694               214.8747
 Red. masses --     2.1420                 1.1977                 1.2818
 Frc consts  --     0.0475                 0.0299                 0.0349
 IR Inten    --     0.5377                89.1582                31.4441

                    13                     14                     15
                     A                      A                      A
 Frequencies --   242.3766               249.9035               322.2279
 Red. masses --     3.3119                 2.8484                 2.8657
 Frc consts  --     0.1146                 0.1048                 0.1753
 IR Inten    --     0.1451                 8.1637                 1.9493

                    16                     17                     18
                     A                      A                      A
 Frequencies --   367.1573               377.1372               423.8180
 Red. masses --     2.4405                 2.2858                 2.8540
 Frc consts  --     0.1938                 0.1916                 0.3020
 IR Inten    --     0.3709                 0.8485                 0.2745

                    19                     20                     21
                     A                      A                      A
 Frequencies --   456.1155               484.6123               619.0581
 Red. masses --     2.0278                 2.6527                 2.4756
 Frc consts  --     0.2486                 0.3671                 0.5590
 IR Inten    --     3.0301                 3.3899                 3.8139

                    22                     23                     24
                     A                      A                      A
 Frequencies --   739.1069               765.3751               806.6250
 Red. masses --     1.1511                 3.5693                 3.4256
 Frc consts  --     0.3705                 1.2319                 1.3132
 IR Inten    --     5.1578                 3.0764                 1.5680

                    25                     26                     27
                     A                      A                      A
 Frequencies --   831.9438               863.6403               937.2753
 Red. masses --     1.7661                 2.3452                 1.7971
 Frc consts  --     0.7202                 1.0306                 0.9302
 IR Inten    --     8.1260                 9.9220                 1.0957

                    28                     29                     30
                     A                      A                      A
 Frequencies --   939.5488               941.4743               968.8376
 Red. masses --     1.3567                 2.3184                 2.0161
 Frc consts  --     0.7056                 1.2108                 1.1150
 IR Inten    --     0.5059                 1.7820                 0.7877

                    31                     32                     33
                     A                      A                      A
 Frequencies --   977.5815               990.6253              1011.4270
 Red. masses --     1.3812                 1.7217                 2.0349
 Frc consts  --     0.7777                 0.9955                 1.2265
 IR Inten    --     2.2962                 6.6166                14.7759

                    34                     35                     36
                     A                      A                      A
 Frequencies --  1014.4627              1037.9354              1051.2006
 Red. masses --     2.7302                 1.7686                 2.3135
 Frc consts  --     1.6554                 1.1226                 1.5063
 IR Inten    --    10.5225                 0.4781                 1.4553

                    37                     38                     39
                     A                      A                      A
 Frequencies --  1080.7500              1136.0408              1142.6141
 Red. masses --     1.6246                 2.4254                 1.3815
 Frc consts  --     1.1180                 1.8443                 1.0626
 IR Inten    --     0.6528                 0.7386                 0.9412

                    40                     41                     42
                     A                      A                      A
 Frequencies --  1190.7337              1254.2783              1271.1663
 Red. masses --     1.9939                 1.4552                 1.5379
 Frc consts  --     1.6656                 1.3489                 1.4642
 IR Inten    --     3.2113                 1.5181                 0.1063

                    43                     44                     45
                     A                      A                      A
 Frequencies --  1287.3521              1296.9122              1320.9285
 Red. masses --     1.7885                 1.3400                 1.3151
 Frc consts  --     1.7463                 1.3279                 1.3520
 IR Inten    --    10.3042                 1.3770                 1.9064

                    46                     47                     48
                     A                      A                      A
 Frequencies --  1326.4197              1346.7746              1362.5238
 Red. masses --     1.3665                 1.3183                 1.1550
 Frc consts  --     1.4165                 1.4088                 1.2633
 IR Inten    --     4.7986                 4.3686                30.4754

                    49                     50                     51
                     A                      A                      A
 Frequencies --  1366.9059              1372.7002              1394.0471
 Red. masses --     1.4285                 1.3801                 1.3375
 Frc consts  --     1.5726                 1.5322                 1.5314
 IR Inten    --     0.7615                 8.5193                 2.8945

                    52                     53                     54
                     A                      A                      A
 Frequencies --  1395.0633              1396.9773              1412.6016
 Red. masses --     1.2937                 1.4178                 1.2100
 Frc consts  --     1.4835                 1.6302                 1.4226
 IR Inten    --    18.0505                 3.9061                 2.9395

                    55                     56                     57
                     A                      A                      A
 Frequencies --  1418.5440              1463.2299              1469.9943
 Red. masses --     1.2487                 1.0891                 1.0679
 Frc consts  --     1.4804                 1.3739                 1.3597
 IR Inten    --    11.8562                 7.1757                 2.1565

                    58                     59                     60
                     A                      A                      A
 Frequencies --  1473.3274              1476.9619              1484.8947
 Red. masses --     1.0592                 1.0619                 1.0671
 Frc consts  --     1.3546                 1.3648                 1.3862
 IR Inten    --     4.2634                 6.8292                 3.1516

                    61                     62                     63
                     A                      A                      A
 Frequencies --  1487.3386              1492.9234              1497.4970
 Red. masses --     1.0829                 1.0721                 1.0478
 Frc consts  --     1.4115                 1.4078                 1.3844
 IR Inten    --     1.5495                 1.7674                 7.5969

                    64                     65                     66
                     A                      A                      A
 Frequencies --  1501.3344              1506.5181              2912.7848
 Red. masses --     1.0839                 1.0717                 1.0629
 Frc consts  --     1.4394                 1.4331                 5.3130
 IR Inten    --     3.2326                11.4266                48.9140

                    67                     68                     69
                     A                      A                      A
 Frequencies --  2919.7214              2954.9279              2975.0275
 Red. masses --     1.0639                 1.0678                 1.0815
 Frc consts  --     5.3438                 5.4931                 5.6396
 IR Inten    --    84.3133                41.0203                18.5250

                    70                     71                     72
                     A                      A                      A
 Frequencies --  3005.3740              3008.5181              3022.7559
 Red. masses --     1.0626                 1.0710                 1.0578
 Frc consts  --     5.6549                 5.7113                 5.6948
 IR Inten    --     9.3430                49.9223                48.3283

                    73                     74                     75
                     A                      A                      A
 Frequencies --  3022.9362              3024.5703              3027.2031
 Red. masses --     1.0543                 1.0754                 1.0705
 Frc consts  --     5.6765                 5.7963                 5.7801
 IR Inten    --    11.3873                32.9581                17.3479

                    76                     77                     78
                     A                      A                      A
 Frequencies --  3029.1424              3053.1065              3068.5962
 Red. masses --     1.0587                 1.0905                 1.1020
 Frc consts  --     5.7235                 5.9889                 6.1137
 IR Inten    --    37.6252                13.4010                11.3977

                    79                     80                     81
                     A                      A                      A
 Frequencies --  3070.6276              3074.1222              3076.6650
 Red. masses --     1.1024                 1.1013                 1.1017
 Frc consts  --     6.1239                 6.1319                 6.1446
 IR Inten    --    36.7131                64.4119                35.3757

                    82                     83                     84
                     A                      A                      A
 Frequencies --  3082.3119              3097.4304              3781.0600
 Red. masses --     1.1006                 1.1015                 1.0686
 Frc consts  --     6.1610                 6.2266                 9.0008
 IR Inten    --    43.4230                27.8587                49.0738

 - Thermochemistry -
 -------------------
 Temperature   298.150 Kelvin.  Pressure   1.00000 Atm.
 Atom     1 has atomic number  6 and mass  12.00000

 Molecular mass:   159.13850 amu.
 Principal axes and moments of inertia in atomic units:
                           1         2         3
     Eigenvalues --  1008.228944103.562184749.81445
           X            0.99985   0.01734  -0.00020
           Y           -0.01733   0.99973   0.01534
           Z            0.00047  -0.01533   0.99988
 This molecule is an asymmetric top.
 Rotational symmetry number  1.
 Warning -- assumption of classical behavior for rotation
           may cause significant error
 Rotational temperatures (Kelvin)      0.08591     0.02111     0.01824
 Rotational constants (GHZ):           1.79001     0.43980     0.37996
 Zero-point vibrational energy     697813.0 (Joules/Mol)
                                  166.78132 (Kcal/Mol)
 Warning -- explicit consideration of  21 degrees of freedom as
           vibrations may cause significant error
 Vibrational temperatures:     32.94    50.63    76.01   100.61   132.57
          (Kelvin)            147.19   167.52   177.34   261.75   279.11
                              296.06   309.16   348.73   359.55   463.61
                              528.26   542.62   609.78   656.25   697.25
                              890.69  1063.41  1101.20  1160.55  1196.98
                             1242.58  1348.53  1351.80  1354.57  1393.94
                             1406.52  1425.29  1455.22  1459.58  1493.36
                             1512.44  1554.96  1634.51  1643.96  1713.20
                             1804.62  1828.92  1852.21  1865.97  1900.52
                             1908.42  1937.71  1960.37  1966.67  1975.01
                             2005.72  2007.18  2009.94  2032.42  2040.97
                             2105.26  2114.99  2119.79  2125.02  2136.43
                             2139.95  2147.98  2154.56  2160.08  2167.54
                             4190.84  4200.82  4251.48  4280.40  4324.06
                             4328.58  4349.07  4349.33  4351.68  4355.46
                             4358.25  4392.73  4415.02  4417.94  4422.97
                             4426.63  4434.75  4456.51  5440.10

 Zero-point correction=                           0.265783 (Hartree/Particle)
 Thermal correction to Energy=                    0.281171
 Thermal correction to Enthalpy=                  0.282116
 Thermal correction to Gibbs Free Energy=         0.220896
 Sum of electronic and zero-point Energies=           -504.588873
 Sum of electronic and thermal Energies=              -504.573485
 Sum of electronic and thermal Enthalpies=            -504.572540
 Sum of electronic and thermal Free Energies=         -504.633760

                     E (Thermal)             CV                S
                      KCal/Mol        Cal/Mol-Kelvin    Cal/Mol-Kelvin
 Total                  176.438             53.180            128.847
 Electronic               0.000              0.000              1.377
 Translational            0.889              2.981             41.103
 Rotational               0.889              2.981             31.353
 Vibrational            174.660             47.219             55.014
 Vibration     1          0.593              1.985              6.366
 Vibration     2          0.594              1.982              5.513
 Vibration     3          0.596              1.976              4.708
 Vibration     4          0.598              1.968              4.155
 Vibration     5          0.602              1.955              3.614
 Vibration     6          0.604              1.947              3.410
 Vibration     7          0.608              1.936              3.159
 Vibration     8          0.610              1.930              3.049
 Vibration     9          0.630              1.864              2.309
 Vibration    10          0.635              1.848              2.189
 Vibration    11          0.640              1.832              2.081
 Vibration    12          0.645              1.818              2.002
 Vibration    13          0.659              1.775              1.785
 Vibration    14          0.663              1.763              1.731
 Vibration    15          0.707              1.631              1.299
 Vibration    16          0.740              1.540              1.092
 Vibration    17          0.748              1.519              1.051
 Vibration    18          0.786              1.418              0.879
 Vibration    19          0.814              1.347              0.777
 Vibration    20          0.841              1.284              0.698
 Vibration    21          0.979              0.992              0.418

 Optimization completed.
    -- Stationary point found.
 Normal termination of Gaussian 09 at Fri Feb  7 01:50:56 2014.
