 Gaussian 09, Revision C.01,

 -------------------------------------------------
 #p stable=(opt,xqc) b3lyp/6-311++g(d,p) guess=mix
 -------------------------------------------------

 (Enter /usr/caen/gaussian-09revc/g09/l101.exe)
 ------------------------------------------------------------
 C9H18_1_26 using B3LYP/6-311++g(d,p) to do opt and cal. freq
 ------------------------------------------------------------
 Charge =  0 Multiplicity = 1

 SCF Done:  E(RB3LYP) =  -353.686911158     A.U. after   17 cycles
 SCF Done:  E(UB3LYP) =  -353.738165252     A.U. after   16 cycles
 Normal termination of Gaussian 09 at Fri Feb  7 01:29:26 2014.
 Gaussian 09:  EM64L-G09RevC.01 23-Sep-2011

 ------------------------------------------------------------
 #p B3LYP/6-311++G(d,p) opt=calcfc freq geom=check guess=read
 ------------------------------------------------------------

 ---------------------
 optimization and freq
 ---------------------
 Structure from the checkpoint file:  C9H18_1_26.chk
 Charge =  0 Multiplicity = 1

 SCF Done:  E(UB3LYP) =  -353.738165252     A.U. after    1 cycles
 SCF Done:  E(UB3LYP) =  -353.768000422     A.U. after   13 cycles
 SCF Done:  E(UB3LYP) =  -353.794815542     A.U. after   15 cycles
 SCF Done:  E(UB3LYP) =  -353.837974707     A.U. after   17 cycles
 SCF Done:  E(UB3LYP) =  -353.857090480     A.U. after   12 cycles
 SCF Done:  E(UB3LYP) =  -353.862821223     A.U. after   12 cycles
 SCF Done:  E(UB3LYP) =  -353.865344840     A.U. after   13 cycles
 SCF Done:  E(UB3LYP) =  -353.837429745     A.U. after   12 cycles
 SCF Done:  E(UB3LYP) =  -353.892578567     A.U. after   11 cycles
 SCF Done:  E(UB3LYP) =  -353.893795422     A.U. after   11 cycles
 SCF Done:  E(UB3LYP) =  -353.894535081     A.U. after   10 cycles
 SCF Done:  E(UB3LYP) =  -353.894635698     A.U. after   10 cycles
 SCF Done:  E(UB3LYP) =  -353.894647738     A.U. after   10 cycles
 SCF Done:  E(UB3LYP) =  -353.894657300     A.U. after   10 cycles
 SCF Done:  E(UB3LYP) =  -353.894659759     A.U. after    9 cycles
 SCF Done:  E(UB3LYP) =  -353.894661284     A.U. after    8 cycles
 SCF Done:  E(UB3LYP) =  -353.894661527     A.U. after    8 cycles
 Optimization completed.
    -- Stationary point found.
 Normal termination of Gaussian 09 at Fri Feb  7 02:13:54 2014.

 ----------------------------------------------------------------------
 #P Geom=AllCheck Guess=TCheck SCRF=Check GenChk UB3LYP/6-311++G(d,p) F
 req
 ----------------------------------------------------------------------

 Structure from the checkpoint file:  C9H18_1_26.chk
 ---------------------
 optimization and freq
 ---------------------
 Charge =  0 Multiplicity = 1

                         Standard orientation:
 ---------------------------------------------------------------------
 Center     Atomic      Atomic             Coordinates (Angstroms)
 Number     Number       Type             X           Y           Z
 ---------------------------------------------------------------------
      1          6           0        3.892283   -0.762234    0.265068
      2          1           0        3.924713   -1.639894   -0.390920
      3          1           0        3.860101   -1.140400    1.293407
      4          1           0        4.822058   -0.205272    0.135209
      5          6           0        2.683708    0.090339   -0.034103
      6          6           0        1.356561   -0.619021    0.130127
      7          1           0        1.369323   -1.512342   -0.510944
      8          1           0        1.309251   -1.012930    1.155688
      9          6           0        0.087685    0.187660   -0.156362
     10          1           0        0.113308    0.554939   -1.189329
     11          1           0        0.071798    1.072348    0.487897
     12          6           0       -1.189518   -0.636222    0.052692
     13          1           0       -1.244225   -0.967025    1.099197
     14          1           0       -1.120305   -1.550785   -0.550012
     15          6           0       -2.502586    0.083977   -0.308930
     16          1           0       -2.410900    0.438469   -1.345065
     17          6           0       -3.685631   -0.892737   -0.252413
     18          1           0       -3.821030   -1.283450    0.762322
     19          1           0       -4.619143   -0.403283   -0.545688
     20          1           0       -3.531003   -1.746167   -0.919392
     21          6           0       -2.769690    1.304461    0.584318
     22          1           0       -3.713316    1.787218    0.313440
     23          1           0       -2.840013    1.007105    1.636947
     24          1           0       -1.980930    2.056060    0.502302
     25          6           0        2.806577    1.364984   -0.411954
     26          1           0        1.950929    1.991718   -0.631717
     27          1           0        3.783052    1.826447   -0.514002
 ---------------------------------------------------------------------

 SCF Done:  E(UB3LYP) =  -353.894661527     A.U. after    1 cycles

 The electronic state is 1-A.
 Alpha  occ. eigenvalues --  -10.18063 -10.17341 -10.17087 -10.16451 -10.16432
 Alpha  occ. eigenvalues --  -10.16336 -10.15640 -10.15613 -10.15230  -0.82492
 Alpha  occ. eigenvalues --   -0.80484  -0.75210  -0.68601  -0.68386  -0.67687
 Alpha  occ. eigenvalues --   -0.60656  -0.56014  -0.52078  -0.47895  -0.46403
 Alpha  occ. eigenvalues --   -0.45046  -0.44290  -0.42873  -0.42030  -0.40717
 Alpha  occ. eigenvalues --   -0.38546  -0.38031  -0.37560  -0.36496  -0.35073
 Alpha  occ. eigenvalues --   -0.34913  -0.33875  -0.32279  -0.32084  -0.31040
 Alpha  occ. eigenvalues --   -0.25020
 Alpha virt. eigenvalues --   -0.00988  -0.00136  -0.00067   0.00697   0.01580
 Alpha virt. eigenvalues --    0.01801   0.02336   0.03598   0.03838   0.04009
 Alpha virt. eigenvalues --    0.04309   0.04423   0.05509   0.06111   0.06608

  Beta  occ. eigenvalues --  -10.18063 -10.17341 -10.17087 -10.16451 -10.16432
  Beta  occ. eigenvalues --  -10.16336 -10.15640 -10.15613 -10.15230  -0.82492
  Beta  occ. eigenvalues --   -0.80484  -0.75210  -0.68601  -0.68386  -0.67687
  Beta  occ. eigenvalues --   -0.60656  -0.56014  -0.52078  -0.47895  -0.46403
  Beta  occ. eigenvalues --   -0.45046  -0.44290  -0.42873  -0.42030  -0.40717
  Beta  occ. eigenvalues --   -0.38546  -0.38031  -0.37560  -0.36496  -0.35073
  Beta  occ. eigenvalues --   -0.34913  -0.33875  -0.32279  -0.32084  -0.31040
  Beta  occ. eigenvalues --   -0.25020
  Beta virt. eigenvalues --   -0.00988  -0.00136  -0.00067   0.00697   0.01580
  Beta virt. eigenvalues --    0.01801   0.02336   0.03598   0.03838   0.04009
  Beta virt. eigenvalues --    0.04309   0.04423   0.05509   0.06111   0.06608

 Mulliken atomic charges:
              1
     1  C   -0.578027
     2  H    0.150161
     3  H    0.150534
     4  H    0.144978
     5  C    0.790902
     6  C   -0.429319
     7  H    0.139088
     8  H    0.143618
     9  C    0.003229
    10  H    0.129698
    11  H    0.102290
    12  C   -0.579668
    13  H    0.136647
    14  H    0.124513
    15  C    0.538441
    16  H    0.137639
    17  C   -0.631994
    18  H    0.135932
    19  H    0.152266
    20  H    0.129283
    21  C   -0.639524
    22  H    0.139770
    23  H    0.141622
    24  H    0.137794
    25  C   -0.952233
    26  H    0.148278
    27  H    0.134079
 Sum of Mulliken atomic charges =   0.00000

 Dipole moment (field-independent basis, Debye):
    X=             -0.1311    Y=             -0.4871    Z=              0.0545  Tot=              0.5074
 Quadrupole moment (field-independent basis, Debye-Ang):
   XX=            -61.2084   YY=            -61.2361   ZZ=            -61.9054
   XY=             -1.6325   XZ=              0.8116   YZ=             -0.5217

  Exact polarizability: 128.845   1.568 114.611  -0.033  -4.420  91.618
 Approx polarizability: 144.447   2.464 171.205  -0.729 -10.180 140.916

                     1                      2                      3
                     A                      A                      A
 Frequencies --    39.6207                58.4594                95.8523
 Red. masses --     2.5589                 2.7841                 3.1165
 Frc consts  --     0.0024                 0.0056                 0.0169
 IR Inten    --     0.1140                 0.0096                 0.0956

                     4                      5                      6
                     A                      A                      A
 Frequencies --   115.9045               136.8269               181.3202
 Red. masses --     1.8575                 1.8998                 1.0796
 Frc consts  --     0.0147                 0.0210                 0.0209
 IR Inten    --     0.0035                 0.0386                 0.1847

                     7                      8                      9
                     A                      A                      A
 Frequencies --   225.7801               238.3194               247.3046
 Red. masses --     1.2213                 1.6618                 2.3081
 Frc consts  --     0.0367                 0.0556                 0.0832
 IR Inten    --     0.0402                 0.0998                 0.0421

                    10                     11                     12
                     A                      A                      A
 Frequencies --   264.4706               377.0259               395.3033
 Red. masses --     1.5357                 2.5530                 2.1923
 Frc consts  --     0.0633                 0.2138                 0.2018
 IR Inten    --     0.0383                 0.0309                 0.4615

                    13                     14                     15
                     A                      A                      A
 Frequencies --   438.0821               442.3056               466.2210
 Red. masses --     2.0711                 2.1498                 2.3801
 Frc consts  --     0.2342                 0.2478                 0.3048
 IR Inten    --     3.7437                 5.5327                 1.0585

                    16                     17                     18
                     A                      A                      A
 Frequencies --   527.5956               685.6236               752.6579
 Red. masses --     2.6707                 1.0374                 1.1380
 Frc consts  --     0.4380                 0.2873                 0.3798
 IR Inten    --     0.1117                 0.0449                 1.4293

                    19                     20                     21
                     A                      A                      A
 Frequencies --   804.8500               848.8321               863.3496
 Red. masses --     2.7462                 1.5504                 2.2395
 Frc consts  --     1.0481                 0.6582                 0.9835
 IR Inten    --     0.5270                 1.2501                 0.2052

                    22                     23                     24
                     A                      A                      A
 Frequencies --   917.5421               930.6382               949.0810
 Red. masses --     1.3352                 1.1982                 1.9061
 Frc consts  --     0.6623                 0.6114                 1.0116
 IR Inten    --    44.2890                 1.2277                 1.1092

                    25                     26                     27
                     A                      A                      A
 Frequencies --   962.8443               965.5491              1005.3370
 Red. masses --     1.4653                 1.9345                 1.5712
 Frc consts  --     0.8003                 1.0626                 0.9356
 IR Inten    --     0.0670                 0.3138                 1.0606

                    28                     29                     30
                     A                      A                      A
 Frequencies --  1010.1271              1052.7603              1057.9804
 Red. masses --     1.4405                 2.4589                 1.4024
 Frc consts  --     0.8660                 1.6056                 0.9249
 IR Inten    --     0.3664                 0.0535                 0.0397

                    31                     32                     33
                     A                      A                      A
 Frequencies --  1066.4041              1143.6222              1148.7081
 Red. masses --     2.2024                 2.1324                 1.6902
 Frc consts  --     1.4757                 1.6432                 1.3140
 IR Inten    --     0.1603                 0.7535                 0.4256

                    34                     35                     36
                     A                      A                      A
 Frequencies --  1191.2015              1225.1796              1239.0303
 Red. masses --     1.7555                 1.5365                 1.6645
 Frc consts  --     1.4676                 1.3588                 1.5056
 IR Inten    --     4.4534                 1.3388                 5.3650

                    37                     38                     39
                     A                      A                      A
 Frequencies --  1285.8002              1308.1189              1332.6374
 Red. masses --     1.4887                 1.2325                 1.0810
 Frc consts  --     1.4501                 1.2426                 1.1311
 IR Inten    --     2.1431                 1.8072                 0.2614

                    40                     41                     42
                     A                      A                      A
 Frequencies --  1343.0624              1369.6082              1386.0743
 Red. masses --     1.3818                 1.3364                 1.5390
 Frc consts  --     1.4685                 1.4769                 1.7420
 IR Inten    --     3.5257                 3.4463                 0.9238

                    43                     44                     45
                     A                      A                      A
 Frequencies --  1400.5476              1405.9956              1412.5789
 Red. masses --     1.3503                 1.5227                 1.2790
 Frc consts  --     1.5605                 1.7735                 1.5036
 IR Inten    --     6.5332                 4.4614                 3.1381

                    46                     47                     48
                     A                      A                      A
 Frequencies --  1422.0129              1445.4666              1471.0287
 Red. masses --     1.2368                 1.2038                 1.0790
 Frc consts  --     1.4735                 1.4819                 1.3757
 IR Inten    --     7.3507                 0.2449                 1.7773

                    49                     50                     51
                     A                      A                      A
 Frequencies --  1481.0052              1481.5713              1490.9076
 Red. masses --     1.0704                 1.0445                 1.0479
 Frc consts  --     1.3833                 1.3508                 1.3724
 IR Inten    --     0.7282                 9.5874                 0.6680

                    52                     53                     54
                     A                      A                      A
 Frequencies --  1495.4225              1497.3884              1505.3030
 Red. masses --     1.0563                 1.0585                 1.0667
 Frc consts  --     1.3918                 1.3983                 1.4241
 IR Inten    --     4.9690                15.2411                 3.6652

                    55                     56                     57
                     A                      A                      A
 Frequencies --  1508.0701              1513.0178              1705.7556
 Red. masses --     1.0784                 1.0536                 4.8570
 Frc consts  --     1.4450                 1.4210                 8.3262
 IR Inten    --     2.0042                16.2872                25.9462

                    58                     59                     60
                     A                      A                      A
 Frequencies --  2981.0721              2983.6724              2991.2418
 Red. masses --     1.0648                 1.0719                 1.0640
 Frc consts  --     5.5751                 5.6221                 5.6091
 IR Inten    --     7.0718                 8.2872                33.9276

                    61                     62                     63
                     A                      A                      A
 Frequencies --  2998.5391              3009.8429              3011.1442
 Red. masses --     1.0979                 1.0387                 1.0367
 Frc consts  --     5.8159                 5.5443                 5.5384
 IR Inten    --    12.0261                33.4857                28.8216

                    64                     65                     66
                     A                      A                      A
 Frequencies --  3015.4210              3017.0136              3021.5596
 Red. masses --     1.0703                 1.0384                 1.0910
 Frc consts  --     5.7339                 5.5688                 5.8685
 IR Inten    --    43.4806                30.7041                24.3810

                    67                     68                     69
                     A                      A                      A
 Frequencies --  3051.5252              3061.7918              3069.7786
 Red. masses --     1.0991                 1.1022                 1.1000
 Frc consts  --     6.0301                 6.0880                 6.1074
 IR Inten    --    20.9860                46.6816                10.4859

                    70                     71                     72
                     A                      A                      A
 Frequencies --  3076.0854              3081.5178              3092.2513
 Red. masses --     1.0995                 1.1015                 1.0993
 Frc consts  --     6.1296                 6.1626                 6.1934
 IR Inten    --    79.2307                49.9399                39.8003

                    73                     74                     75
                     A                      A                      A
 Frequencies --  3101.1857              3136.3391              3215.6384
 Red. masses --     1.0991                 1.0607                 1.1141
 Frc consts  --     6.2280                 6.1472                 6.7874
 IR Inten    --    27.4698                 9.6466                19.0332

 - Thermochemistry -
 -------------------
 Temperature   298.150 Kelvin.  Pressure   1.00000 Atm.
 Atom     1 has atomic number  6 and mass  12.00000

 Molecular mass:   126.14085 amu.
 Principal axes and moments of inertia in atomic units:
                           1         2         3
     Eigenvalues --   449.646273266.384183549.16650
           X            0.99999  -0.00380   0.00020
           Y            0.00380   0.99999  -0.00388
           Z           -0.00018   0.00388   0.99999
 This molecule is an asymmetric top.
 Rotational symmetry number  1.
 Warning -- assumption of classical behavior for rotation
           may cause significant error
 Rotational temperatures (Kelvin)      0.19263     0.02652     0.02440
 Rotational constants (GHZ):           4.01369     0.55252     0.50850
 Zero-point vibrational energy     653452.4 (Joules/Mol)
                                  156.17886 (Kcal/Mol)
 Warning -- explicit consideration of  16 degrees of freedom as
           vibrations may cause significant error
 Vibrational temperatures:     57.01    84.11   137.91   166.76   196.86
          (Kelvin)            260.88   324.85   342.89   355.82   380.51
                              542.46   568.75   630.30   636.38   670.79
                              759.09   986.46  1082.91  1158.00  1221.28
                             1242.17  1320.14  1338.98  1365.51  1385.32
                             1389.21  1446.45  1453.35  1514.69  1522.20
                             1534.32  1645.42  1652.73  1713.87  1762.76
                             1782.69  1849.98  1882.09  1917.37  1932.36
                             1970.56  1994.25  2015.07  2022.91  2032.38
                             2045.96  2079.70  2116.48  2130.83  2131.65
                             2145.08  2151.58  2154.41  2165.79  2169.77
                             2176.89  2454.20  4289.09  4292.83  4303.72
                             4314.22  4330.49  4332.36  4338.51  4340.80
                             4347.34  4390.46  4405.23  4416.72  4425.80
                             4433.61  4449.05  4461.91  4512.49  4626.58

 Zero-point correction=                           0.248887 (Hartree/Particle)
 Thermal correction to Energy=                    0.260757
 Thermal correction to Enthalpy=                  0.261701
 Thermal correction to Gibbs Free Energy=         0.210917
 Sum of electronic and zero-point Energies=           -353.645775
 Sum of electronic and thermal Energies=              -353.633904
 Sum of electronic and thermal Enthalpies=            -353.632960
 Sum of electronic and thermal Free Energies=         -353.683745

                     E (Thermal)             CV                S
                      KCal/Mol        Cal/Mol-Kelvin    Cal/Mol-Kelvin
 Total                  163.628             43.291            106.885
 Electronic               0.000              0.000              0.000
 Translational            0.889              2.981             40.410
 Rotational               0.889              2.981             30.034
 Vibrational            161.850             37.330             36.441
 Vibration     1          0.594              1.981              5.278
 Vibration     2          0.596              1.974              4.509
 Vibration     3          0.603              1.952              3.537
 Vibration     4          0.608              1.936              3.168
 Vibration     5          0.614              1.917              2.848
 Vibration     6          0.630              1.865              2.315
 Vibration     7          0.650              1.802              1.912
 Vibration     8          0.656              1.782              1.815
 Vibration     9          0.661              1.767              1.750
 Vibration    10          0.671              1.738              1.632
 Vibration    11          0.748              1.519              1.051
 Vibration    12          0.762              1.480              0.980
 Vibration    13          0.798              1.387              0.833
 Vibration    14          0.802              1.378              0.819
 Vibration    15          0.824              1.325              0.748
 Vibration    16          0.883              1.189              0.593

 Optimization completed.
    -- Stationary point found.
 Normal termination of Gaussian 09 at Fri Feb  7 02:24:23 2014.
