 Gaussian 09, Revision C.01,

 -------------------------------------------------
 #p stable=(opt,xqc) b3lyp/6-311++g(d,p) guess=mix
 -------------------------------------------------

 (Enter /usr/caen/gaussian-09revc/g09/l101.exe)
 -------------------------------------------------------------
 C9H18O_1_26 using B3LYP/6-311++g(d,p) to do opt and cal. freq
 -------------------------------------------------------------
 Charge =  0 Multiplicity = 1

 SCF Done:  E(RB3LYP) =  -429.100707644     A.U. after   14 cycles
 Normal termination of Gaussian 09 at Thu Feb  6 19:06:21 2014.
 Gaussian 09:  EM64L-G09RevC.01 23-Sep-2011

 ------------------------------------------------------------
 #p B3LYP/6-311++G(d,p) opt=calcfc freq geom=check guess=read
 ------------------------------------------------------------

 ---------------------
 optimization and freq
 ---------------------
 Structure from the checkpoint file:  C9H18O_1_26.chk
 Charge =  0 Multiplicity = 1

 SCF Done:  E(RB3LYP) =  -429.100707644     A.U. after    1 cycles
 SCF Done:  E(RB3LYP) =  -429.135946508     A.U. after   12 cycles
 SCF Done:  E(RB3LYP) =  -429.148720554     A.U. after   12 cycles
 SCF Done:  E(RB3LYP) =  -429.150199991     A.U. after   12 cycles
 SCF Done:  E(RB3LYP) =  -429.150509795     A.U. after   12 cycles
 SCF Done:  E(RB3LYP) =  -429.150603094     A.U. after   12 cycles
 SCF Done:  E(RB3LYP) =  -429.150634702     A.U. after   12 cycles
 SCF Done:  E(RB3LYP) =  -429.150643412     A.U. after   10 cycles
 SCF Done:  E(RB3LYP) =  -429.150644556     A.U. after    9 cycles
 SCF Done:  E(RB3LYP) =  -429.150644536     A.U. after    9 cycles
 SCF Done:  E(RB3LYP) =  -429.150644388     A.U. after    9 cycles
 SCF Done:  E(RB3LYP) =  -429.150644306     A.U. after    8 cycles
 Optimization completed.
    -- Stationary point found.
 Normal termination of Gaussian 09 at Thu Feb  6 19:34:01 2014.

 ----------------------------------------------------------------------
 #P Geom=AllCheck Guess=TCheck SCRF=Check GenChk RB3LYP/6-311++G(d,p) F
 req
 ----------------------------------------------------------------------

 Structure from the checkpoint file:  C9H18O_1_26.chk
 ---------------------
 optimization and freq
 ---------------------
 Charge =  0 Multiplicity = 1

                         Standard orientation:
 ---------------------------------------------------------------------
 Center     Atomic      Atomic             Coordinates (Angstroms)
 Number     Number       Type             X           Y           Z
 ---------------------------------------------------------------------
      1          6           0        3.408041   -1.326638   -0.021652
      2          1           0        3.169744   -2.346851   -0.333051
      3          1           0        3.551445   -1.322896    1.061645
      4          1           0        4.358087   -1.038517   -0.475568
      5          6           0        2.284901   -0.371074   -0.427714
      6          1           0        2.142926   -0.412310   -1.518975
      7          6           0        0.929018   -0.757264    0.221446
      8          1           0        0.806442   -1.838626    0.092115
      9          1           0        0.993953   -0.589189    1.303536
     10          6           0       -0.312354   -0.050802   -0.341676
     11          1           0       -0.343231   -0.190257   -1.430318
     12          1           0       -0.242511    1.027589   -0.171692
     13          6           0       -1.614031   -0.584204    0.271176
     14          1           0       -1.600452   -0.416927    1.356923
     15          1           0       -1.642853   -1.672461    0.133185
     16          6           0       -2.909947    0.015100   -0.307876
     17          1           0       -2.882142   -0.124619   -1.397546
     18          6           0       -4.134998   -0.739052    0.228421
     19          1           0       -4.210559   -0.637093    1.316683
     20          1           0       -5.061144   -0.350634   -0.205222
     21          1           0       -4.079439   -1.807065   -0.002333
     22          6           0        2.630674    1.072635   -0.121100
     23          1           0        1.896037    1.823696   -0.481820
     24          6           0       -3.040306    1.519477   -0.028084
     25          1           0       -3.976499    1.911831   -0.435827
     26          1           0       -3.041348    1.715074    1.050223
     27          1           0       -2.224479    2.095836   -0.471219
     28          8           0        3.617504    1.438044    0.471453
 ---------------------------------------------------------------------

 SCF Done:  E(RB3LYP) =  -429.150644306     A.U. after    1 cycles

 The electronic state is 1-A.
 Alpha  occ. eigenvalues --  -19.12756 -10.26242 -10.19294 -10.18373 -10.17977
 Alpha  occ. eigenvalues --  -10.17646 -10.17118 -10.16447 -10.16178 -10.16136
 Alpha  occ. eigenvalues --   -1.05734  -0.83262  -0.81017  -0.75661  -0.68953
 Alpha  occ. eigenvalues --   -0.68705  -0.65711  -0.61076  -0.56704  -0.55265
 Alpha  occ. eigenvalues --   -0.50452  -0.48350  -0.46033  -0.45539  -0.44706
 Alpha  occ. eigenvalues --   -0.43454  -0.42367  -0.40059  -0.39150  -0.39024
 Alpha  occ. eigenvalues --   -0.38312  -0.37660  -0.36825  -0.36278  -0.35131
 Alpha  occ. eigenvalues --   -0.34273  -0.32996  -0.32866  -0.31782  -0.25974
 Alpha virt. eigenvalues --   -0.03960  -0.01233  -0.00291  -0.00015   0.00431
 Alpha virt. eigenvalues --    0.01662   0.02073   0.02653   0.02995   0.03865
 Alpha virt. eigenvalues --    0.04197   0.04266   0.05012   0.05604   0.06295

 Mulliken atomic charges:
              1
     1  C   -0.634519
     2  H    0.127957
     3  H    0.177239
     4  H    0.172408
     5  C    0.403854
     6  H    0.153714
     7  C   -0.457807
     8  H    0.133816
     9  H    0.148621
    10  C   -0.021395
    11  H    0.152175
    12  H    0.079180
    13  C   -0.600930
    14  H    0.140987
    15  H    0.118689
    16  C    0.522963
    17  H    0.135044
    18  C   -0.620074
    19  H    0.137689
    20  H    0.152516
    21  H    0.130749
    22  C   -0.217874
    23  H    0.117967
    24  C   -0.653835
    25  H    0.139983
    26  H    0.144890
    27  H    0.137836
    28  O   -0.221843
 Sum of Mulliken atomic charges =   0.00000

 Dipole moment (field-independent basis, Debye):
    X=             -2.4520    Y=             -1.4804    Z=             -1.3150  Tot=              3.1516
 Quadrupole moment (field-independent basis, Debye-Ang):
   XX=            -79.2125   YY=            -68.3876   ZZ=            -65.5701
   XY=             -6.8627   XZ=             -4.1145   YZ=             -1.3244

  Exact polarizability: 136.604   0.230 108.959   3.189  -0.688  95.050
 Approx polarizability: 159.769   4.580 151.218   8.471   1.849 148.867

                     1                      2                      3
                     A                      A                      A
 Frequencies --    13.2369                40.1267                72.5735
 Red. masses --     2.7352                 4.5023                 2.9027
 Frc consts  --     0.0003                 0.0043                 0.0090
 IR Inten    --     0.4022                 4.6510                 2.5442

                     4                      5                      6
                     A                      A                      A
 Frequencies --    90.9574               107.9542               143.9570
 Red. masses --     3.0626                 1.7784                 2.1668
 Frc consts  --     0.0149                 0.0122                 0.0265
 IR Inten    --     0.5504                 0.3856                 0.6147

                     7                      8                      9
                     A                      A                      A
 Frequencies --   208.5541               217.4199               227.2820
 Red. masses --     1.1514                 2.3939                 1.1143
 Frc consts  --     0.0295                 0.0667                 0.0339
 IR Inten    --     0.2102                 1.4964                 0.1132

                    10                     11                     12
                     A                      A                      A
 Frequencies --   246.1498               252.6332               290.3329
 Red. masses --     2.3705                 1.1971                 3.4053
 Frc consts  --     0.0846                 0.0450                 0.1691
 IR Inten    --     0.1983                 0.4737                 6.1298

                    13                     14                     15
                     A                      A                      A
 Frequencies --   352.4517               385.4705               408.7193
 Red. masses --     2.5736                 2.2131                 2.0690
 Frc consts  --     0.1884                 0.1937                 0.2036
 IR Inten    --     0.9852                 0.6391                 0.2824

                    16                     17                     18
                     A                      A                      A
 Frequencies --   457.3831               488.1239               658.4645
 Red. masses --     2.1344                 2.9074                 3.1717
 Frc consts  --     0.2631                 0.4082                 0.8102
 IR Inten    --     0.2262                 1.1550                 2.2978

                    19                     20                     21
                     A                      A                      A
 Frequencies --   741.2944               788.0068               828.7927
 Red. masses --     1.1354                 2.6922                 2.3005
 Frc consts  --     0.3676                 0.9850                 0.9310
 IR Inten    --     5.2694                 8.1213                 4.9924

                    22                     23                     24
                     A                      A                      A
 Frequencies --   836.2432               922.1534               928.0993
 Red. masses --     1.5006                 1.7669                 1.2339
 Frc consts  --     0.6183                 0.8852                 0.6262
 IR Inten    --     3.2771                13.5531                 0.1263

                    25                     26                     27
                     A                      A                      A
 Frequencies --   940.1088               947.7120               964.2565
 Red. masses --     1.5266                 1.5817                 1.4579
 Frc consts  --     0.7949                 0.8370                 0.7987
 IR Inten    --     2.7026                 1.1643                 0.1082

                    28                     29                     30
                     A                      A                      A
 Frequencies --   991.9603              1022.7694              1050.2219
 Red. masses --     1.6008                 3.8929                 1.7237
 Frc consts  --     0.9281                 2.3992                 1.1201
 IR Inten    --     0.4621                 1.4530                 2.5778

                    31                     32                     33
                     A                      A                      A
 Frequencies --  1059.9122              1111.8702              1121.1384
 Red. masses --     1.6630                 1.7326                 2.2313
 Frc consts  --     1.1007                 1.2620                 1.6525
 IR Inten    --     0.0153                 1.8503                 8.9118

                    34                     35                     36
                     A                      A                      A
 Frequencies --  1158.7445              1171.9332              1189.4188
 Red. masses --     2.1541                 2.1559                 1.7789
 Frc consts  --     1.7041                 1.7445                 1.4828
 IR Inten    --     1.0195                 1.3141                 4.6639

                    37                     38                     39
                     A                      A                      A
 Frequencies --  1218.7522              1270.3579              1286.7868
 Red. masses --     1.6499                 1.2299                 1.3800
 Frc consts  --     1.4439                 1.1694                 1.3463
 IR Inten    --     1.9758                 0.0596                 3.6752

                    40                     41                     42
                     A                      A                      A
 Frequencies --  1317.8165              1334.7418              1338.3235
 Red. masses --     1.2117                 1.2517                 1.1544
 Frc consts  --     1.2398                 1.3138                 1.2182
 IR Inten    --     0.7169                 1.6968                 0.3254

                    43                     44                     45
                     A                      A                      A
 Frequencies --  1359.9347              1371.5684              1386.7043
 Red. masses --     1.4271                 1.3245                 1.5296
 Frc consts  --     1.5551                 1.4680                 1.7330
 IR Inten    --     4.4352                 3.7015                 1.9304

                    46                     47                     48
                     A                      A                      A
 Frequencies --  1395.4050              1401.5512              1413.1518
 Red. masses --     1.4794                 1.2679                 1.2220
 Frc consts  --     1.6973                 1.4675                 1.4378
 IR Inten    --     1.3057                 8.2028                 1.3996

                    49                     50                     51
                     A                      A                      A
 Frequencies --  1420.7435              1427.8078              1480.8001
 Red. masses --     1.2417                 1.2305                 1.0699
 Frc consts  --     1.4767                 1.4780                 1.3822
 IR Inten    --     7.4191                 9.9567                 0.4779

                    52                     53                     54
                     A                      A                      A
 Frequencies --  1487.1898              1490.7222              1493.6471
 Red. masses --     1.0697                 1.0468                 1.0456
 Frc consts  --     1.3940                 1.3705                 1.3744
 IR Inten    --     0.8324                 0.6966                 6.3947

                    55                     56                     57
                     A                      A                      A
 Frequencies --  1496.1374              1499.7340              1505.0486
 Red. masses --     1.0569                 1.0621                 1.0581
 Frc consts  --     1.3938                 1.4075                 1.4121
 IR Inten    --     3.1232                 3.4912                 4.5029

                    58                     59                     60
                     A                      A                      A
 Frequencies --  1508.1782              1512.5724              1792.2852
 Red. masses --     1.0805                 1.0584                10.3303
 Frc consts  --     1.4480                 1.4267                19.5515
 IR Inten    --     4.4065                18.9294               221.2074

                    61                     62                     63
                     A                      A                      A
 Frequencies --  2883.2333              2975.1547              2983.3159
 Red. masses --     1.0820                 1.0809                 1.0800
 Frc consts  --     5.2995                 5.6372                 5.6631
 IR Inten    --   106.6309                15.4693                 6.6737

                    64                     65                     66
                     A                      A                      A
 Frequencies --  2992.8257              3000.9021              3011.8692
 Red. masses --     1.0619                 1.0668                 1.0498
 Frc consts  --     5.6041                 5.6602                 5.6109
 IR Inten    --     9.5128                12.4893                14.8464

                    67                     68                     69
                     A                      A                      A
 Frequencies --  3012.6896              3018.2063              3025.2207
 Red. masses --     1.0491                 1.0385                 1.0958
 Frc consts  --     5.6104                 5.5737                 5.9087
 IR Inten    --    72.7882                30.2862                26.5412

                    70                     71                     72
                     A                      A                      A
 Frequencies --  3036.4220              3038.5375              3066.5236
 Red. masses --     1.0408                 1.0938                 1.1002
 Frc consts  --     5.6538                 5.9502                 6.0958
 IR Inten    --    24.8477                 3.9933                45.5292

                    73                     74                     75
                     A                      A                      A
 Frequencies --  3071.4030              3077.6519              3083.0139
 Red. masses --     1.0999                 1.0996                 1.1014
 Frc consts  --     6.1134                 6.1366                 6.1680
 IR Inten    --    16.4927                73.7050                51.3489

                    76                     77                     78
                     A                      A                      A
 Frequencies --  3091.2284              3100.1259              3108.4837
 Red. masses --     1.0994                 1.1022                 1.1016
 Frc consts  --     6.1896                 6.2411                 6.2712
 IR Inten    --    42.2047                25.4369                23.3172

 - Thermochemistry -
 -------------------
 Temperature   298.150 Kelvin.  Pressure   1.00000 Atm.
 Atom     1 has atomic number  6 and mass  12.00000

 Molecular mass:   142.13577 amu.
 Principal axes and moments of inertia in atomic units:
                           1         2         3
     Eigenvalues --   623.973064057.152424498.94022
           X            0.99982  -0.01850  -0.00409
           Y            0.01842   0.99963  -0.02021
           Z            0.00446   0.02013   0.99979
 This molecule is an asymmetric top.
 Rotational symmetry number  1.
 Warning -- assumption of classical behavior for rotation
           may cause significant error
 Rotational temperatures (Kelvin)      0.13881     0.02135     0.01925
 Rotational constants (GHZ):           2.89234     0.44483     0.40115
 Zero-point vibrational energy     665262.4 (Joules/Mol)
                                  159.00154 (Kcal/Mol)
 Warning -- explicit consideration of  17 degrees of freedom as
           vibrations may cause significant error
 Vibrational temperatures:     19.04    57.73   104.42   130.87   155.32
          (Kelvin)            207.12   300.06   312.82   327.01   354.15
                              363.48   417.72   507.10   554.61   588.06
                              658.07   702.30   947.38  1066.56  1133.76
                             1192.45  1203.17  1326.77  1335.33  1352.61
                             1363.54  1387.35  1427.21  1471.54  1511.03
                             1524.98  1599.73  1613.07  1667.17  1686.15
                             1711.31  1753.51  1827.76  1851.40  1896.04
                             1920.39  1925.55  1956.64  1973.38  1995.16
                             2007.67  2016.52  2033.21  2044.13  2054.29
                             2130.54  2139.73  2144.81  2149.02  2152.61
                             2157.78  2165.43  2169.93  2176.25  2578.70
                             4148.32  4280.58  4292.32  4306.00  4317.62
                             4333.40  4334.58  4342.52  4352.61  4368.73
                             4371.77  4412.04  4419.06  4428.05  4435.76
                             4447.58  4460.38  4472.41

 Zero-point correction=                           0.253385 (Hartree/Particle)
 Thermal correction to Energy=                    0.266474
 Thermal correction to Enthalpy=                  0.267418
 Thermal correction to Gibbs Free Energy=         0.212152
 Sum of electronic and zero-point Energies=           -428.897259
 Sum of electronic and thermal Energies=              -428.884170
 Sum of electronic and thermal Enthalpies=            -428.883226
 Sum of electronic and thermal Free Energies=         -428.938493

                     E (Thermal)             CV                S
                      KCal/Mol        Cal/Mol-Kelvin    Cal/Mol-Kelvin
 Total                  167.215             46.339            116.318
 Electronic               0.000              0.000              0.000
 Translational            0.889              2.981             40.766
 Rotational               0.889              2.981             30.811
 Vibrational            165.438             40.377             44.741
 Vibration     1          0.593              1.987              7.454
 Vibration     2          0.594              1.981              5.253
 Vibration     3          0.599              1.967              4.082
 Vibration     4          0.602              1.956              3.639
 Vibration     5          0.606              1.943              3.305
 Vibration     6          0.616              1.909              2.751
 Vibration     7          0.642              1.828              2.056
 Vibration     8          0.646              1.815              1.980
 Vibration     9          0.651              1.799              1.900
 Vibration    10          0.661              1.769              1.758
 Vibration    11          0.664              1.758              1.712
 Vibration    12          0.686              1.692              1.472
 Vibration    13          0.729              1.570              1.155
 Vibration    14          0.754              1.501              1.018
 Vibration    15          0.773              1.451              0.931
 Vibration    16          0.816              1.345              0.774
 Vibration    17          0.844              1.276              0.688

 Optimization completed.
    -- Stationary point found.
 Normal termination of Gaussian 09 at Thu Feb  6 19:43:41 2014.
