 Gaussian 09, Revision C.01,

 --------------------------------------------------
 #p stable=(opt,xqc) ub3lyp/6-311++g(d,p) guess=mix
 --------------------------------------------------

 (Enter /usr/caen/gaussian-09revc/g09/l101.exe)
 -----------------------------------------------------------------
 C9H18OOH_1_26_c using B3LYP/6-311++g(d,p) to do opt and cal. freq
 -----------------------------------------------------------------
 Charge =  0 Multiplicity = 2

 SCF Done:  E(UB3LYP) =  -504.829267346     A.U. after   16 cycles
 Normal termination of Gaussian 09 at Thu Feb  6 20:45:21 2014.
 Gaussian 09:  EM64L-G09RevC.01 23-Sep-2011

 -------------------------------------------------------------
 #p UB3LYP/6-311++G(d,p) opt=calcfc freq geom=check guess=read
 -------------------------------------------------------------

 ---------------------
 optimization and freq
 ---------------------
 Structure from the checkpoint file:  C9H18OOH_1_26_c.chk
 Charge =  0 Multiplicity = 2

 SCF Done:  E(UB3LYP) =  -504.829267346     A.U. after    2 cycles
 SCF Done:  E(UB3LYP) =  -504.848677514     A.U. after   16 cycles
 SCF Done:  E(UB3LYP) =  -504.853058543     A.U. after   15 cycles
 SCF Done:  E(UB3LYP) =  -504.855344868     A.U. after   15 cycles
 SCF Done:  E(UB3LYP) =  -504.855941946     A.U. after   13 cycles
 SCF Done:  E(UB3LYP) =  -504.856106411     A.U. after   14 cycles
 SCF Done:  E(UB3LYP) =  -504.856357618     A.U. after   13 cycles
 SCF Done:  E(UB3LYP) =  -504.856388016     A.U. after   11 cycles
 SCF Done:  E(UB3LYP) =  -504.856418104     A.U. after   13 cycles
 SCF Done:  E(UB3LYP) =  -504.856442731     A.U. after   12 cycles
 SCF Done:  E(UB3LYP) =  -504.856514148     A.U. after   14 cycles
 SCF Done:  E(UB3LYP) =  -504.856550419     A.U. after   12 cycles
 SCF Done:  E(UB3LYP) =  -504.856572808     A.U. after   12 cycles
 SCF Done:  E(UB3LYP) =  -504.856596393     A.U. after   13 cycles
 SCF Done:  E(UB3LYP) =  -504.856599158     A.U. after   12 cycles
 SCF Done:  E(UB3LYP) =  -504.856599265     A.U. after   10 cycles
 SCF Done:  E(UB3LYP) =  -504.856599330     A.U. after    9 cycles
 SCF Done:  E(UB3LYP) =  -504.856599327     A.U. after    9 cycles
 Optimization completed.
    -- Stationary point found.
 Normal termination of Gaussian 09 at Thu Feb  6 22:20:16 2014.

 ----------------------------------------------------------------------
 #P Geom=AllCheck Guess=TCheck SCRF=Check GenChk UB3LYP/6-311++G(d,p) F
 req
 ----------------------------------------------------------------------

 Structure from the checkpoint file:  C9H18OOH_1_26_c.chk
 ---------------------
 optimization and freq
 ---------------------
 Charge =  0 Multiplicity = 2

                         Standard orientation:
 ---------------------------------------------------------------------
 Center     Atomic      Atomic             Coordinates (Angstroms)
 Number     Number       Type             X           Y           Z
 ---------------------------------------------------------------------
      1          6           0       -3.037893   -1.858678   -0.121736
      2          1           0       -2.656209   -2.885471   -0.110915
      3          1           0       -3.399640   -1.668756   -1.144530
      4          1           0       -3.910595   -1.805897    0.535266
      5          6           0       -1.979228   -0.876985    0.272146
      6          6           0       -0.623476   -1.023965   -0.355888
      7          1           0       -0.396236   -2.095582   -0.436261
      8          1           0       -0.678641   -0.663533   -1.398473
      9          6           0        0.550327   -0.315488    0.337420
     10          1           0        0.586920   -0.616234    1.392342
     11          1           0        0.380920    0.764356    0.322643
     12          6           0        1.895186   -0.637399   -0.326499
     13          1           0        1.863603   -0.326433   -1.379815
     14          1           0        2.028780   -1.726672   -0.336810
     15          6           0        3.128829   -0.001867    0.342675
     16          1           0        3.106971   -0.275196    1.406918
     17          6           0        4.420981   -0.571647   -0.259726
     18          1           0        4.490822   -0.335379   -1.327365
     19          1           0        5.305767   -0.154110    0.230096
     20          1           0        4.463334   -1.660074   -0.156807
     21          6           0       -2.412997    0.379543    0.942094
     22          1           0       -3.144171    0.173012    1.732600
     23          1           0       -1.582783    0.948127    1.367938
     24          6           0        3.124264    1.531010    0.248896
     25          1           0        4.012025    1.954391    0.728116
     26          1           0        3.126702    1.854401   -0.798321
     27          1           0        2.248867    1.971838    0.732014
     28          8           0       -3.188767    1.264731    0.087085
     29          8           0       -2.292176    1.747552   -0.961108
     30          1           0       -2.394853    2.701798   -0.842748
 ---------------------------------------------------------------------

 SCF Done:  E(UB3LYP) =  -504.856599327     A.U. after    1 cycles

 The electronic state is 2-A.
 Alpha  occ. eigenvalues --  -19.18145 -19.17876 -10.22262 -10.18600 -10.17365
 Alpha  occ. eigenvalues --  -10.16903 -10.16488 -10.16372 -10.16289 -10.15672
 Alpha  occ. eigenvalues --  -10.15651  -1.11832  -0.91859  -0.82248  -0.80208
 Alpha  occ. eigenvalues --   -0.75055  -0.68641  -0.68415  -0.67746  -0.60865
 Alpha  occ. eigenvalues --   -0.56301  -0.55598  -0.51515  -0.48830  -0.48008
 Alpha  occ. eigenvalues --   -0.46870  -0.45102  -0.44196  -0.43335  -0.41674
 Alpha  occ. eigenvalues --   -0.41403  -0.40175  -0.38562  -0.38150  -0.37776
 Alpha  occ. eigenvalues --   -0.36293  -0.35651  -0.35387  -0.33922  -0.32347
 Alpha  occ. eigenvalues --   -0.32228  -0.31967  -0.31323  -0.26809  -0.19335
 Alpha virt. eigenvalues --   -0.01712  -0.00502  -0.00045   0.00454   0.00973
 Alpha virt. eigenvalues --    0.01804   0.02101   0.02326   0.03517   0.03810
 Alpha virt. eigenvalues --    0.04010   0.04254   0.05295   0.05499   0.06130

  Beta  occ. eigenvalues --  -19.17905 -19.17882 -10.22337 -10.17365 -10.17271
  Beta  occ. eigenvalues --  -10.16975 -10.16463 -10.16450 -10.16288 -10.15672
  Beta  occ. eigenvalues --  -10.15651  -1.11563  -0.91509  -0.81882  -0.79233
  Beta  occ. eigenvalues --   -0.74601  -0.68449  -0.68348  -0.67587  -0.60585
  Beta  occ. eigenvalues --   -0.56130  -0.54947  -0.50827  -0.48281  -0.47776
  Beta  occ. eigenvalues --   -0.46463  -0.44793  -0.44024  -0.43135  -0.41487
  Beta  occ. eigenvalues --   -0.40483  -0.39851  -0.38534  -0.37839  -0.37580
  Beta  occ. eigenvalues --   -0.36228  -0.35467  -0.35225  -0.33657  -0.32265
  Beta  occ. eigenvalues --   -0.32151  -0.31628  -0.31159  -0.26564
  Beta virt. eigenvalues --   -0.06418  -0.01667  -0.00471  -0.00008   0.00498
  Beta virt. eigenvalues --    0.01195   0.01869   0.02153   0.02358   0.03547
  Beta virt. eigenvalues --    0.03860   0.04021   0.04276   0.05363   0.05548

 Mulliken atomic charges:
              1
     1  C   -0.336425
     2  H    0.138460
     3  H    0.194662
     4  H    0.147116
     5  C    0.453727
     6  C    0.001364
     7  H    0.126220
     8  H    0.162370
     9  C   -0.203535
    10  H    0.142031
    11  H    0.018606
    12  C   -0.798043
    13  H    0.149520
    14  H    0.117877
    15  C    0.496741
    16  H    0.133801
    17  C   -0.622669
    18  H    0.135514
    19  H    0.151036
    20  H    0.130659
    21  C   -0.887881
    22  H    0.172116
    23  H    0.209560
    24  C   -0.637675
    25  H    0.141700
    26  H    0.140636
    27  H    0.139401
    28  O   -0.045960
    29  O   -0.227288
    30  H    0.256360
 Sum of Mulliken atomic charges =   0.00000

 Dipole moment (field-independent basis, Debye):
    X=              0.8465    Y=              0.2055    Z=              0.9235  Tot=              1.2695
 Quadrupole moment (field-independent basis, Debye-Ang):
   XX=            -77.8079   YY=            -66.8804   ZZ=            -72.4189
   XY=              0.7422   XZ=             -2.1468   YZ=             -0.2440

  Exact polarizability: 141.249   3.418 121.120  -3.198   0.990 107.381
 Approx polarizability: 164.207   1.133 165.389  -5.784  -2.630 165.008

                     1                      2                      3
                     A                      A                      A
 Frequencies --    22.9354                33.2753                60.4195
 Red. masses --     4.4368                 2.8994                 3.0114
 Frc consts  --     0.0014                 0.0019                 0.0065
 IR Inten    --     0.3885                 0.1637                 0.9477

                     4                      5                      6
                     A                      A                      A
 Frequencies --    83.9148                90.4421                96.5380
 Red. masses --     2.3443                 2.9291                 1.3357
 Frc consts  --     0.0097                 0.0141                 0.0073
 IR Inten    --     0.4460                 0.6514                 1.2316

                     7                      8                      9
                     A                      A                      A
 Frequencies --   104.6567               137.7358               173.1329
 Red. masses --     1.8263                 2.2856                 1.2203
 Frc consts  --     0.0118                 0.0255                 0.0216
 IR Inten    --     1.0868                 0.4282               122.2687

                    10                     11                     12
                     A                      A                      A
 Frequencies --   203.0360               223.8565               235.8862
 Red. masses --     2.5287                 1.1282                 2.0724
 Frc consts  --     0.0614                 0.0333                 0.0679
 IR Inten    --    10.0356                 0.6936                 3.2511

                    13                     14                     15
                     A                      A                      A
 Frequencies --   250.0800               257.1363               342.4074
 Red. masses --     2.8602                 1.3812                 3.4981
 Frc consts  --     0.1054                 0.0538                 0.2416
 IR Inten    --     0.0453                 0.7068                 1.7989

                    16                     17                     18
                     A                      A                      A
 Frequencies --   372.6489               396.4979               437.0181
 Red. masses --     2.7462                 2.2487                 2.0364
 Frc consts  --     0.2247                 0.2083                 0.2291
 IR Inten    --     0.6815                 0.8517                 0.6768

                    19                     20                     21
                     A                      A                      A
 Frequencies --   453.0533               502.3192               568.6245
 Red. masses --     2.0433                 2.6935                 3.8947
 Frc consts  --     0.2471                 0.4004                 0.7420
 IR Inten    --     2.1911                 2.7571                10.6408

                    22                     23                     24
                     A                      A                      A
 Frequencies --   737.6363               775.6444               810.1817
 Red. masses --     1.1882                 3.2661                 2.0188
 Frc consts  --     0.3809                 1.1577                 0.7807
 IR Inten    --     2.1172                 4.7480                 7.3385

                    25                     26                     27
                     A                      A                      A
 Frequencies --   824.0327               843.6150               912.7265
 Red. masses --     3.6518                 1.7881                10.7641
 Frc consts  --     1.4610                 0.7498                 5.2834
 IR Inten    --    42.9215                 0.2731                12.9172

                    28                     29                     30
                     A                      A                      A
 Frequencies --   929.1174               944.1919               958.5109
 Red. masses --     1.2354                 1.7493                 1.6253
 Frc consts  --     0.6284                 0.9188                 0.8798
 IR Inten    --     1.6150                 2.3632                 1.0886

                    31                     32                     33
                     A                      A                      A
 Frequencies --   962.8776               983.2139               998.1542
 Red. masses --     1.4637                 1.6331                 1.6821
 Frc consts  --     0.7996                 0.9302                 0.9874
 IR Inten    --     0.1908                12.3113                 0.2270

                    34                     35                     36
                     A                      A                      A
 Frequencies --  1020.2321              1039.7606              1056.7565
 Red. masses --     1.4751                 3.4391                 2.3486
 Frc consts  --     0.9046                 2.1906                 1.5453
 IR Inten    --     0.9600                 0.4891                 0.4034

                    37                     38                     39
                     A                      A                      A
 Frequencies --  1119.7914              1137.8255              1189.1496
 Red. masses --     1.4562                 2.0727                 1.7619
 Frc consts  --     1.0759                 1.5810                 1.4679
 IR Inten    --     0.4245                 1.6823                 4.6141

                    40                     41                     42
                     A                      A                      A
 Frequencies --  1204.2013              1223.0419              1253.7657
 Red. masses --     2.0191                 1.6191                 1.5501
 Frc consts  --     1.7251                 1.4270                 1.4356
 IR Inten    --     0.3051                 2.3929                 2.1304

                    43                     44                     45
                     A                      A                      A
 Frequencies --  1297.0937              1299.5071              1307.3925
 Red. masses --     1.4417                 1.3841                 1.4498
 Frc consts  --     1.4291                 1.3771                 1.4600
 IR Inten    --     1.2499                 0.2441                11.5560

                    46                     47                     48
                     A                      A                      A
 Frequencies --  1332.5896              1345.9935              1347.7774
 Red. masses --     1.1053                 1.1705                 1.3706
 Frc consts  --     1.1565                 1.2494                 1.4669
 IR Inten    --     0.8086                24.7118                 5.0716

                    49                     50                     51
                     A                      A                      A
 Frequencies --  1362.7245              1370.5197              1387.1121
 Red. masses --     1.2832                 1.3236                 1.5304
 Frc consts  --     1.4040                 1.4648                 1.7349
 IR Inten    --    27.4338                 3.1342                 0.1199

                    52                     53                     54
                     A                      A                      A
 Frequencies --  1399.0102              1403.2362              1408.0360
 Red. masses --     1.3740                 1.3256                 1.3470
 Frc consts  --     1.5844                 1.5379                 1.5734
 IR Inten    --     4.4447                12.8692                 1.4346

                    55                     56                     57
                     A                      A                      A
 Frequencies --  1421.5968              1461.2619              1467.3642
 Red. masses --     1.2382                 1.0740                 1.1122
 Frc consts  --     1.4743                 1.3512                 1.4109
 IR Inten    --     6.8994                 3.9849                 3.5483

                    58                     59                     60
                     A                      A                      A
 Frequencies --  1474.8316              1480.8268              1487.9490
 Red. masses --     1.0864                 1.0712                 1.0706
 Frc consts  --     1.3923                 1.3840                 1.3965
 IR Inten    --    12.0967                 0.7399                 6.7728

                    61                     62                     63
                     A                      A                      A
 Frequencies --  1490.7693              1495.7650              1504.2041
 Red. masses --     1.0455                 1.0571                 1.0773
 Frc consts  --     1.3690                 1.3934                 1.4361
 IR Inten    --     1.2585                 2.3858                 3.3584

                    64                     65                     66
                     A                      A                      A
 Frequencies --  1505.5150              1512.7084              2927.7183
 Red. masses --     1.0679                 1.0523                 1.0712
 Frc consts  --     1.4262                 1.4187                 5.4097
 IR Inten    --     3.5521                16.2154                18.2992

                    67                     68                     69
                     A                      A                      A
 Frequencies --  2963.5728              2982.7439              2991.3403
 Red. masses --     1.0556                 1.0794                 1.0638
 Frc consts  --     5.4623                 5.6578                 5.6083
 IR Inten    --    27.9502                 5.1320                12.0494

                    70                     71                     72
                     A                      A                      A
 Frequencies --  3000.6921              3006.8106              3011.7149
 Red. masses --     1.0823                 1.0702                 1.0362
 Frc consts  --     5.7418                 5.7009                 5.5375
 IR Inten    --    36.4441                27.6385                36.8682

                    73                     74                     75
                     A                      A                      A
 Frequencies --  3017.0359              3023.6277              3025.5363
 Red. masses --     1.0379                 1.0765                 1.0799
 Frc consts  --     5.5661                 5.7986                 5.8241
 IR Inten    --    30.3503                14.2969                37.7216

                    76                     77                     78
                     A                      A                      A
 Frequencies --  3031.8110              3069.2232              3070.6912
 Red. masses --     1.0753                 1.0997                 1.0995
 Frc consts  --     5.8234                 6.1038                 6.1082
 IR Inten    --    34.8455                 5.0738                24.4800

                    79                     80                     81
                     A                      A                      A
 Frequencies --  3076.4574              3080.0381              3081.0086
 Red. masses --     1.0997                 1.1002                 1.1011
 Frc consts  --     6.1325                 6.1496                 6.1583
 IR Inten    --    82.3624                14.2272                51.3030

                    82                     83                     84
                     A                      A                      A
 Frequencies --  3083.5357              3090.1346              3782.6007
 Red. masses --     1.1014                 1.0989                 1.0685
 Frc consts  --     6.1703                 6.1827                 9.0075
 IR Inten    --    66.0244                35.8075                52.1954

 - Thermochemistry -
 -------------------
 Temperature   298.150 Kelvin.  Pressure   1.00000 Atm.
 Atom     1 has atomic number  6 and mass  12.00000

 Molecular mass:   159.13850 amu.
 Principal axes and moments of inertia in atomic units:
                           1         2         3
     Eigenvalues --   985.385074348.054814957.17947
           X            0.99985   0.01707  -0.00288
           Y           -0.01699   0.99952   0.02584
           Z            0.00331  -0.02579   0.99966
 This molecule is an asymmetric top.
 Rotational symmetry number  1.
 Warning -- assumption of classical behavior for rotation
           may cause significant error
 Rotational temperatures (Kelvin)      0.08790     0.01992     0.01747
 Rotational constants (GHZ):           1.83151     0.41507     0.36407
 Zero-point vibrational energy     698918.9 (Joules/Mol)
                                  167.04563 (Kcal/Mol)
 Warning -- explicit consideration of  21 degrees of freedom as
           vibrations may cause significant error
 Vibrational temperatures:     33.00    47.88    86.93   120.73   130.13
          (Kelvin)            138.90   150.58   198.17   249.10   292.12
                              322.08   339.39   359.81   369.96   492.65
                              536.16   570.47   628.77   651.84   722.72
                              818.12  1061.29  1115.98  1165.67  1185.60
                             1213.77  1313.21  1336.79  1358.48  1379.08
                             1385.36  1414.62  1436.12  1467.88  1495.98
                             1520.43  1611.13  1637.08  1710.92  1732.57
                             1759.68  1803.89  1866.23  1869.70  1881.04
                             1917.30  1936.58  1939.15  1960.65  1971.87
                             1995.74  2012.86  2018.94  2025.85  2045.36
                             2102.43  2111.21  2121.95  2130.58  2140.82
                             2144.88  2152.07  2164.21  2166.10  2176.45
                             4212.33  4263.91  4291.50  4303.87  4317.32
                             4326.12  4333.18  4340.84  4350.32  4353.07
                             4362.09  4415.92  4418.03  4426.33  4431.48
                             4432.88  4436.51  4446.01  5442.31

 Zero-point correction=                           0.266204 (Hartree/Particle)
 Thermal correction to Energy=                    0.281450
 Thermal correction to Enthalpy=                  0.282394
 Thermal correction to Gibbs Free Energy=         0.221591
 Sum of electronic and zero-point Energies=           -504.590395
 Sum of electronic and thermal Energies=              -504.575150
 Sum of electronic and thermal Enthalpies=            -504.574206
 Sum of electronic and thermal Free Energies=         -504.635008

                     E (Thermal)             CV                S
                      KCal/Mol        Cal/Mol-Kelvin    Cal/Mol-Kelvin
 Total                  176.612             53.089            127.970
 Electronic               0.000              0.000              1.377
 Translational            0.889              2.981             41.103
 Rotational               0.889              2.981             31.430
 Vibrational            174.835             47.128             54.060
 Vibration     1          0.593              1.985              6.362
 Vibration     2          0.594              1.983              5.624
 Vibration     3          0.597              1.973              4.443
 Vibration     4          0.601              1.960              3.797
 Vibration     5          0.602              1.956              3.650
 Vibration     6          0.603              1.952              3.523
 Vibration     7          0.605              1.946              3.366
 Vibration     8          0.614              1.916              2.835
 Vibration     9          0.627              1.876              2.401
 Vibration    10          0.639              1.836              2.105
 Vibration    11          0.649              1.805              1.928
 Vibration    12          0.655              1.786              1.834
 Vibration    13          0.663              1.763              1.730
 Vibration    14          0.667              1.751              1.681
 Vibration    15          0.722              1.591              1.201
 Vibration    16          0.744              1.528              1.069
 Vibration    17          0.763              1.478              0.976
 Vibration    18          0.797              1.390              0.836
 Vibration    19          0.812              1.354              0.787
 Vibration    20          0.858              1.245              0.652
 Vibration    21          0.925              1.099              0.507

 Normal termination of Gaussian 09 at Thu Feb  6 22:57:44 2014.
