 Gaussian 09, Revision C.01,

 --------------------------------------------------
 #p stable=(opt,xqc) ub3lyp/6-311++g(d,p) guess=mix
 --------------------------------------------------

 (Enter /usr/caen/gaussian-09revc/g09/l101.exe)
 -----------------------------------------------------
 HO2 using B3LYP/6-311++g(d,p) to do opt and cal. freq
 -----------------------------------------------------
 Charge =  0 Multiplicity = 2

 SCF Done:  E(UB3LYP) =  -150.957332613     A.U. after   18 cycles
 Normal termination of Gaussian 09 at Fri Feb  7 01:52:20 2014.
 Gaussian 09:  EM64L-G09RevC.01 23-Sep-2011

 -------------------------------------------------------------
 #p UB3LYP/6-311++G(d,p) opt=calcfc freq geom=check guess=read
 -------------------------------------------------------------

 ---------------------
 optimization and freq
 ---------------------
 Structure from the checkpoint file:  HO2.chk
 Charge =  0 Multiplicity = 2

 SCF Done:  E(UB3LYP) =  -150.957332632     A.U. after    1 cycles
 SCF Done:  E(UB3LYP) =  -150.958065046     A.U. after   10 cycles
 SCF Done:  E(UB3LYP) =  -150.958066078     A.U. after    8 cycles
 Optimization completed.
    -- Stationary point found.
 Normal termination of Gaussian 09 at Fri Feb  7 01:52:30 2014.

 ----------------------------------------------------------------------
 #P Geom=AllCheck Guess=TCheck SCRF=Check GenChk UB3LYP/6-311++G(d,p) F
 req
 ----------------------------------------------------------------------

 Structure from the checkpoint file:  HO2.chk
 ---------------------
 optimization and freq
 ---------------------
 Charge =  0 Multiplicity = 2

                         Standard orientation:
 ---------------------------------------------------------------------
 Center     Atomic      Atomic             Coordinates (Angstroms)
 Number     Number       Type             X           Y           Z
 ---------------------------------------------------------------------
      1          8           0        0.055282   -0.609296    0.000000
      2          1           0       -0.884513   -0.876385    0.000000
      3          8           0        0.055282    0.718845    0.000000
 ---------------------------------------------------------------------

 SCF Done:  E(UB3LYP) =  -150.958066078     A.U. after    1 cycles

 The electronic state is 2-A".
 Alpha  occ. eigenvalues --  -19.26192 -19.22274  -1.21794  -0.89013  -0.58099
 Alpha  occ. eigenvalues --   -0.51088  -0.49607  -0.32059  -0.31478
 Alpha virt. eigenvalues --   -0.02741   0.04628   0.10444   0.12916   0.14573
 Alpha virt. eigenvalues --    0.16341   0.19061   0.20185   0.20250   0.22552
 Alpha virt. eigenvalues --    0.32911   0.47918   0.92897   0.93348   0.95340

  Beta  occ. eigenvalues --  -19.25312 -19.20178  -1.19056  -0.84856  -0.56527
  Beta  occ. eigenvalues --   -0.48046  -0.43174  -0.29531
  Beta virt. eigenvalues --   -0.13884  -0.02551   0.05849   0.10578   0.13697
  Beta virt. eigenvalues --    0.14790   0.17378   0.19133   0.20467   0.21425
  Beta virt. eigenvalues --    0.22680   0.33237   0.48105   0.93809   0.95728

 Mulliken atomic charges:
              1
     1  O   -0.121114
     2  H    0.267364
     3  O   -0.146250
 Sum of Mulliken atomic charges =   0.00000

 Dipole moment (field-independent basis, Debye):
    X=             -1.8550    Y=             -1.4919    Z=              0.0000  Tot=              2.3805
 Quadrupole moment (field-independent basis, Debye-Ang):
   XX=            -10.1292   YY=            -11.2724   ZZ=            -11.1323
   XY=              1.7591   XZ=              0.0000   YZ=              0.0000

  Exact polarizability:   8.972   1.639  16.800   0.000   0.000   6.992
 Approx polarizability:  10.526   1.979  24.544   0.000   0.000   7.737

                     1                      2                      3
                    A'                     A'                     A'
 Frequencies --  1155.8166              1422.3670              3601.9086
 Red. masses --    12.3709                 1.1410                 1.0689
 Frc consts  --     9.7371                 1.3601                 8.1708
 IR Inten    --    28.9524                29.9252                26.5719

 - Thermochemistry -
 -------------------
 Temperature   298.150 Kelvin.  Pressure   1.00000 Atm.
 Atom     1 has atomic number  8 and mass  15.99491

 Molecular mass:    32.99765 amu.
 Principal axes and moments of inertia in atomic units:
                           1         2         3
     Eigenvalues --     2.89703  53.58748  56.48451
           X            0.06034   0.99818   0.00000
           Y            0.99818  -0.06034   0.00000
           Z            0.00000   0.00000   1.00000
 This molecule is an asymmetric top.
 Rotational symmetry number  1.
 Rotational temperatures (Kelvin)     29.89748     1.61631     1.53341
 Rotational constants (GHZ):         622.96316    33.67841    31.95108
 Zero-point vibrational energy      36965.2 (Joules/Mol)
                                    8.83489 (Kcal/Mol)
 Vibrational temperatures:   1662.96  2046.47  5182.34
          (Kelvin)

 Zero-point correction=                           0.014079 (Hartree/Particle)
 Thermal correction to Energy=                    0.016939
 Thermal correction to Enthalpy=                  0.017883
 Thermal correction to Gibbs Free Energy=        -0.008098
 Sum of electronic and zero-point Energies=           -150.943987
 Sum of electronic and thermal Energies=              -150.941127
 Sum of electronic and thermal Enthalpies=            -150.940183
 Sum of electronic and thermal Free Energies=         -150.966164

                     E (Thermal)             CV                S
                      KCal/Mol        Cal/Mol-Kelvin    Cal/Mol-Kelvin
 Total                   10.629              6.295             54.680
 Electronic               0.000              0.000              1.377
 Translational            0.889              2.981             36.413
 Rotational               0.889              2.981             16.824
 Vibrational              8.852              0.334              0.066

 Optimization completed.
    -- Stationary point found.
 Normal termination of Gaussian 09 at Fri Feb  7 01:52:36 2014.
