 Gaussian 09, Revision C.01,

 --------------------------------------------------
 #p stable=(opt,xqc) ub3lyp/6-311++g(d,p) guess=mix
 --------------------------------------------------

 (Enter /usr/caen/gaussian-09revc/g09/l101.exe)
 ----------------------------------------------------
 OH using B3LYP/6-311++g(d,p) to do opt and cal. freq
 ----------------------------------------------------
 Charge =  0 Multiplicity = 2

 SCF Done:  E(UB3LYP) =  -75.7621825769     A.U. after   36 cycles
 Normal termination of Gaussian 09 at Fri Feb  7 02:26:13 2014.
 Gaussian 09:  EM64L-G09RevC.01 23-Sep-2011

 -------------------------------------------------------------
 #p UB3LYP/6-311++G(d,p) opt=calcfc freq geom=check guess=read
 -------------------------------------------------------------

 ---------------------
 optimization and freq
 ---------------------
 Structure from the checkpoint file:  OH.chk
 Charge =  0 Multiplicity = 2

 SCF Done:  E(UB3LYP) =  -75.7621825769     A.U. after    1 cycles
 SCF Done:  E(UB3LYP) =  -75.7624117750     A.U. after    8 cycles
 SCF Done:  E(UB3LYP) =  -75.7624124008     A.U. after    7 cycles
 Optimization completed.
    -- Stationary point found.
 Normal termination of Gaussian 09 at Fri Feb  7 02:26:21 2014.

 ----------------------------------------------------------------------
 #P Geom=AllCheck Guess=TCheck SCRF=Check GenChk UB3LYP/6-311++G(d,p) F
 req
 ----------------------------------------------------------------------

 Structure from the checkpoint file:  OH.chk
 ---------------------
 optimization and freq
 ---------------------
 Charge =  0 Multiplicity = 2

                         Standard orientation:
 ---------------------------------------------------------------------
 Center     Atomic      Atomic             Coordinates (Angstroms)
 Number     Number       Type             X           Y           Z
 ---------------------------------------------------------------------
      1          8           0        0.000000    0.000000    0.108428
      2          1           0        0.000000    0.000000   -0.867426
 ---------------------------------------------------------------------

 SCF Done:  E(UB3LYP) =  -75.7624124008     A.U. after    1 cycles

 Unable to determine electronic state:  an orbital has unidentified symmetry.
 Alpha  occ. eigenvalues --  -19.20695  -1.03045  -0.48935  -0.42831  -0.35642
 Alpha virt. eigenvalues --   -0.01838   0.12276   0.13988   0.14873   0.15490
 Alpha virt. eigenvalues --    0.21225   0.49311   0.93697   0.95974   0.97623
 Alpha virt. eigenvalues --    1.28141   1.30178   1.31958   1.97321   2.44761

  Beta  occ. eigenvalues --  -19.18120  -0.95983  -0.46281  -0.32927
  Beta virt. eigenvalues --   -0.18608  -0.01493   0.12742   0.15153   0.15884
  Beta virt. eigenvalues --    0.16437   0.21670   0.49926   0.97272   0.98880
  Beta virt. eigenvalues --    1.01325   1.31599   1.31781   1.31847   1.98501

 Mulliken atomic charges:
              1
     1  O   -0.240073
     2  H    0.240073
 Sum of Mulliken atomic charges =   0.00000

 Dipole moment (field-independent basis, Debye):
    X=              0.0000    Y=              0.0000    Z=             -1.8315  Tot=              1.8315
 Quadrupole moment (field-independent basis, Debye-Ang):
   XX=             -6.0358   YY=             -6.4641   ZZ=             -4.7829
   XY=              0.6622   XZ=              0.0000   YZ=              0.0000

  Exact polarizability:   3.881  -0.587   4.262   0.000   0.000   7.132
 Approx polarizability:   3.875  -0.456   4.171   0.000   0.000   8.524

                     1
                    SG
 Frequencies --  3709.4647
 Red. masses --     1.0671
 Frc consts  --     8.6512
 IR Inten    --    13.3624

 - Thermochemistry -
 -------------------
 Temperature   298.150 Kelvin.  Pressure   1.00000 Atm.
 Atom     1 has atomic number  8 and mass  15.99491

 Molecular mass:    17.00274 amu.
 Principal axes and moments of inertia in atomic units:
                           1         2         3
     Eigenvalues --     0.00000   3.22415   3.22415
           X            0.00000   0.91111  -0.41217
           Y            0.00000   0.41217   0.91111
           Z            1.00000   0.00000   0.00000
 This molecule is a prolate symmetric top.
 Rotational symmetry number  1.
 Rotational temperature (Kelvin)     26.86406
 Rotational constant (GHZ):         559.756887
 Zero-point vibrational energy      22187.5 (Joules/Mol)
                                    5.30295 (Kcal/Mol)
 Vibrational temperatures:   5337.09
          (Kelvin)

 Zero-point correction=                           0.008451 (Hartree/Particle)
 Thermal correction to Energy=                    0.010811
 Thermal correction to Enthalpy=                  0.011755
 Thermal correction to Gibbs Free Energy=        -0.008478
 Sum of electronic and zero-point Energies=            -75.753962
 Sum of electronic and thermal Energies=               -75.751601
 Sum of electronic and thermal Enthalpies=             -75.750657
 Sum of electronic and thermal Free Energies=          -75.770890

                     E (Thermal)             CV                S
                      KCal/Mol        Cal/Mol-Kelvin    Cal/Mol-Kelvin
 Total                    6.784              4.968             42.584
 Electronic               0.000              0.000              1.377
 Translational            0.889              2.981             34.437
 Rotational               0.592              1.987              6.770
 Vibrational              5.303              0.000              0.000

 Optimization completed.
    -- Stationary point found.
 Normal termination of Gaussian 09 at Fri Feb  7 02:26:25 2014.
