 Gaussian 09, Revision C.01,
 Gaussian 09:  EM64L-G09RevC.01 23-Sep-2011

 ----------------------------
 #p ub3lyp/6-311++g(d,p) freq
 ----------------------------

 (Enter /usr/caen/gaussian-09revc/g09/l101.exe)
 --------------------------------------------------------
 TS_1_1g using B3LYP/6-311++g(d,p) to find TS | reactants
 --------------------------------------------------------
 Charge =  0 Multiplicity = 2

                         Standard orientation:
 ---------------------------------------------------------------------
 Center     Atomic      Atomic             Coordinates (Angstroms)
 Number     Number       Type             X           Y           Z
 ---------------------------------------------------------------------
      1          6           0        3.594908   -0.539038    0.398132
      2          1           0        3.542768   -0.430536    1.486734
      3          1           0        3.917599   -1.560467    0.180440
      4          1           0        4.371108    0.140655    0.032634
      5          6           0        2.232575   -0.248188   -0.250512
      6          1           0        2.327437   -0.428015   -1.328948
      7          6           0        1.127169   -1.173298    0.300067
      8          1           0        1.578563   -2.122128    0.608870
      9          1           0        0.721088   -0.726055    1.213342
     10          6           0       -0.015980   -1.474118   -0.700013
     11          1           0        0.181576   -2.433194   -1.188852
     12          1           0       -0.015689   -0.726158   -1.497432
     13          6           0       -1.411509   -1.509496   -0.046215
     14          1           0       -1.340663   -1.996574    0.932455
     15          1           0       -2.082500   -2.138276   -0.650545
     16          6           0       -2.067257   -0.139693    0.096900
     17          1           0       -1.067157    0.754288    0.301624
     18          6           0       -2.671169    0.407693   -1.182468
     19          1           0       -3.574064   -0.163459   -1.444539
     20          1           0       -2.960732    1.455272   -1.071524
     21          1           0       -1.980130    0.337334   -2.025834
     22          6           0        1.918179    1.240003   -0.043576
     23          1           0        1.973996    1.505108    1.016411
     24          1           0        2.639526    1.855206   -0.591832
     25          6           0       -2.934405    0.044474    1.324598
     26          1           0       -3.286761    1.075210    1.417917
     27          1           0       -3.823148   -0.601522    1.263392
     28          1           0       -2.400397   -0.222009    2.240602
     29          8           0        0.642226    1.683537   -0.537756
     30          8           0       -0.311912    1.663374    0.503207
 ---------------------------------------------------------------------

 SCF Done:  E(UB3LYP) =  -504.837750020     A.U. after   17 cycles

 The electronic state is 2-A.
 Alpha  occ. eigenvalues --  -19.18097 -19.16884 -10.21735 -10.19621 -10.18011
 Alpha  occ. eigenvalues --  -10.17440 -10.16903 -10.16801 -10.16710 -10.16676
 Alpha  occ. eigenvalues --  -10.16519  -1.11934  -0.88850  -0.83219  -0.80169
 Alpha  occ. eigenvalues --   -0.75692  -0.69737  -0.68580  -0.66948  -0.61065
 Alpha  occ. eigenvalues --   -0.57581  -0.57001  -0.51318  -0.49252  -0.47741
 Alpha  occ. eigenvalues --   -0.45937  -0.45428  -0.44755  -0.43299  -0.42473
 Alpha  occ. eigenvalues --   -0.40904  -0.40158  -0.39701  -0.38714  -0.38077
 Alpha  occ. eigenvalues --   -0.37309  -0.36402  -0.35304  -0.34043  -0.32961
 Alpha  occ. eigenvalues --   -0.32867  -0.32381  -0.29410  -0.26783  -0.21895
 Alpha virt. eigenvalues --   -0.00927  -0.00277   0.00324   0.00814   0.02145
 Alpha virt. eigenvalues --    0.02226   0.02510   0.03098   0.03437   0.03814
 Alpha virt. eigenvalues --    0.04430   0.05121   0.05510   0.05605   0.05895

  Beta  occ. eigenvalues --  -19.17875 -19.15703 -10.21739 -10.18750 -10.18004
  Beta  occ. eigenvalues --  -10.17455 -10.16871 -10.16819 -10.16712 -10.16674
  Beta  occ. eigenvalues --  -10.16536  -1.10666  -0.87128  -0.82605  -0.79580
  Beta  occ. eigenvalues --   -0.75469  -0.69569  -0.68497  -0.66687  -0.60834
  Beta  occ. eigenvalues --   -0.57448  -0.55320  -0.50527  -0.48593  -0.47358
  Beta  occ. eigenvalues --   -0.45522  -0.45177  -0.44060  -0.42931  -0.41650
  Beta  occ. eigenvalues --   -0.40099  -0.39764  -0.39201  -0.38610  -0.37703
  Beta  occ. eigenvalues --   -0.36984  -0.36187  -0.34649  -0.33803  -0.32791
  Beta  occ. eigenvalues --   -0.32594  -0.32164  -0.28205  -0.25135
  Beta virt. eigenvalues --   -0.10990  -0.00865  -0.00247   0.00359   0.00822
  Beta virt. eigenvalues --    0.02210   0.02243   0.02534   0.03332   0.03454
  Beta virt. eigenvalues --    0.03974   0.04549   0.05179   0.05530   0.05694

 Mulliken atomic charges:
              1
     1  C   -0.612663
     2  H    0.145533
     3  H    0.138155
     4  H    0.138491
     5  C    0.267492
     6  H    0.186009
     7  C   -0.424386
     8  H    0.177099
     9  H    0.176786
    10  C   -0.224452
    11  H    0.172887
    12  H    0.161307
    13  C   -0.189798
    14  H    0.171565
    15  H    0.156606
    16  C   -0.274172
    17  H    0.462358
    18  C   -0.561122
    19  H    0.143524
    20  H    0.165732
    21  H    0.145698
    22  C   -0.599510
    23  H    0.214595
    24  H    0.167590
    25  C   -0.537552
    26  H    0.158534
    27  H    0.146893
    28  H    0.152381
    29  O    0.006442
    30  O   -0.232023
 Sum of Mulliken atomic charges =   0.00000

 Dipole moment (field-independent basis, Debye):
    X=              0.2682    Y=             -2.2860    Z=              0.0014  Tot=              2.3017
 Quadrupole moment (field-independent basis, Debye-Ang):
   XX=            -65.0289   YY=            -76.4176   ZZ=            -72.3835
   XY=              1.5757   XZ=             -0.1916   YZ=              0.2179

  Exact polarizability: 168.948  14.707 121.830  -0.759   0.700 107.334
 Approx polarizability: 204.008  25.350 178.332  -5.641   0.536 163.430

 ******    1 imaginary frequencies (negative Signs) ******

                     1                      2                      3
                     A                      A                      A
 Frequencies -- -1753.3376                41.9006                88.2141
 Red. masses --     1.1171                 3.2105                 2.7316
 Frc consts  --     2.0234                 0.0033                 0.0125
 IR Inten    --  1502.0108                 0.6814                 1.0162

                     4                      5                      6
                     A                      A                      A
 Frequencies --   123.0703               133.6060               151.0001
 Red. masses --     2.6919                 3.2061                 2.6469
 Frc consts  --     0.0240                 0.0337                 0.0356
 IR Inten    --     0.5710                 2.4309                 0.3132

                     7                      8                      9
                     A                      A                      A
 Frequencies --   181.5815               194.5525               207.8665
 Red. masses --     1.1016                 2.3846                 1.1986
 Frc consts  --     0.0214                 0.0532                 0.0305
 IR Inten    --     0.2760                 0.8277                 0.1176

                    10                     11                     12
                     A                      A                      A
 Frequencies --   239.4763               243.6827               284.9447
 Red. masses --     1.3676                 2.0695                 2.8477
 Frc consts  --     0.0462                 0.0724                 0.1362
 IR Inten    --     0.2285                 2.3276                 0.0474

                    13                     14                     15
                     A                      A                      A
 Frequencies --   289.9749               346.9020               362.4577
 Red. masses --     2.6283                 2.5449                 2.1095
 Frc consts  --     0.1302                 0.1804                 0.1633
 IR Inten    --     2.5552                 0.8767                 0.8525

                    16                     17                     18
                     A                      A                      A
 Frequencies --   388.1444               409.1101               440.5340
 Red. masses --     2.0435                 3.4097                 2.2340
 Frc consts  --     0.1814                 0.3362                 0.2554
 IR Inten    --     1.2007                 4.0319                 1.3061

                    19                     20                     21
                     A                      A                      A
 Frequencies --   471.5470               539.3118               562.3463
 Red. masses --     3.3353                 3.0048                 3.1200
 Frc consts  --     0.4370                 0.5149                 0.5813
 IR Inten    --     0.6664                 0.7571                 1.9217

                    22                     23                     24
                     A                      A                      A
 Frequencies --   734.7501               806.1151               838.1103
 Red. masses --     1.6457                 2.3890                 1.6263
 Frc consts  --     0.5235                 0.9146                 0.6731
 IR Inten    --     5.7488                 3.9426                 2.2166

                    25                     26                     27
                     A                      A                      A
 Frequencies --   861.2064               901.1583               927.6100
 Red. masses --     2.4044                 2.5025                 1.7588
 Frc consts  --     1.0507                 1.1974                 0.8916
 IR Inten    --     0.4378                 4.1739                 1.3048

                    28                     29                     30
                     A                      A                      A
 Frequencies --   937.6686               952.6207               956.9493
 Red. masses --     1.3295                 1.9319                 1.9137
 Frc consts  --     0.6887                 1.0330                 1.0325
 IR Inten    --     0.1767                 2.0350                 9.1334

                    31                     32                     33
                     A                      A                      A
 Frequencies --   981.7858               994.4886              1008.6203
 Red. masses --     1.4232                 1.9561                 1.9514
 Frc consts  --     0.8083                 1.1398                 1.1697
 IR Inten    --     0.2757                 8.1860                 1.2904

                    34                     35                     36
                     A                      A                      A
 Frequencies --  1022.0944              1063.4134              1087.7837
 Red. masses --     5.7575                 2.8405                 1.8930
 Frc consts  --     3.5438                 1.8925                 1.3197
 IR Inten    --    71.9909                 1.9771                 3.6805

                    37                     38                     39
                     A                      A                      A
 Frequencies --  1104.0253              1126.4592              1151.9197
 Red. masses --     1.5539                 1.2176                 1.8351
 Frc consts  --     1.1159                 0.9103                 1.4347
 IR Inten    --    10.2477                19.6788                 0.0456

                    40                     41                     42
                     A                      A                      A
 Frequencies --  1161.5999              1187.6720              1225.8184
 Red. masses --     2.1112                 1.9724                 1.4406
 Frc consts  --     1.6784                 1.6392                 1.2754
 IR Inten    --     9.5212                 4.2546                10.1500

                    43                     44                     45
                     A                      A                      A
 Frequencies --  1250.0949              1278.1989              1288.8267
 Red. masses --     1.9609                 1.6764                 1.2900
 Frc consts  --     1.8054                 1.6137                 1.2625
 IR Inten    --     4.1868                 2.6030                 3.9233

                    46                     47                     48
                     A                      A                      A
 Frequencies --  1316.1030              1322.5185              1343.9598
 Red. masses --     1.2739                 1.1317                 1.2338
 Frc consts  --     1.3000                 1.1662                 1.3130
 IR Inten    --     0.5107                 0.4692                 2.1148

                    49                     50                     51
                     A                      A                      A
 Frequencies --  1361.6438              1380.6641              1392.0869
 Red. masses --     1.3638                 1.3256                 1.3375
 Frc consts  --     1.4898                 1.4888                 1.5271
 IR Inten    --     1.3302                 3.1687                 6.3467

                    52                     53                     54
                     A                      A                      A
 Frequencies --  1394.2706              1398.8493              1412.0106
 Red. masses --     1.2621                 1.3456                 1.2184
 Frc consts  --     1.4456                 1.5513                 1.4313
 IR Inten    --     7.2446                 3.6183                 7.0076

                    55                     56                     57
                     A                      A                      A
 Frequencies --  1415.8417              1465.8128              1467.6433
 Red. masses --     1.2277                 1.0899                 1.0505
 Frc consts  --     1.4500                 1.3798                 1.3332
 IR Inten    --     6.2031                 3.4755                 0.5407

                    58                     59                     60
                     A                      A                      A
 Frequencies --  1476.5790              1480.7972              1485.3519
 Red. masses --     1.0847                 1.0621                 1.0594
 Frc consts  --     1.3934                 1.3722                 1.3771
 IR Inten    --     0.8700                 1.4020                 5.4889

                    61                     62                     63
                     A                      A                      A
 Frequencies --  1489.2438              1493.7050              1499.9843
 Red. masses --     1.0686                 1.0711                 1.0579
 Frc consts  --     1.3964                 1.4080                 1.4023
 IR Inten    --     5.9943                 3.8869                 5.4783

                    64                     65                     66
                     A                      A                      A
 Frequencies --  1500.2882              1502.9429              1507.5818
 Red. masses --     1.0513                 1.0522                 1.0813
 Frc consts  --     1.3942                 1.4003                 1.4479
 IR Inten    --     6.3594                 9.0041                 7.5451

                    67                     68                     69
                     A                      A                      A
 Frequencies --  2971.8529              2976.7754              2985.2077
 Red. masses --     1.0663                 1.0527                 1.0542
 Frc consts  --     5.5487                 5.4961                 5.5348
 IR Inten    --    15.5408                20.7237                88.4552

                    70                     71                     72
                     A                      A                      A
 Frequencies --  3002.3017              3015.1164              3019.8794
 Red. masses --     1.0829                 1.0396                 1.0600
 Frc consts  --     5.7508                 5.5682                 5.6958
 IR Inten    --     8.7243                12.6131                29.0489

                    73                     74                     75
                     A                      A                      A
 Frequencies --  3028.2264              3030.4984              3035.8770
 Red. masses --     1.0587                 1.0635                 1.0950
 Frc consts  --     5.7198                 5.7548                 5.9460
 IR Inten    --    76.3649                14.5008                20.1405

                    76                     77                     78
                     A                      A                      A
 Frequencies --  3053.6070              3057.1347              3067.4516
 Red. masses --     1.0936                 1.0798                 1.0820
 Frc consts  --     6.0079                 5.9458                 5.9982
 IR Inten    --    22.2280                26.4823                 6.5696

                    79                     80                     81
                     A                      A                      A
 Frequencies --  3071.9048              3073.1559              3081.5220
 Red. masses --     1.0996                 1.1026                 1.1053
 Frc consts  --     6.1138                 6.1355                 6.1841
 IR Inten    --    32.8622                19.0405                48.1572

                    82                     83                     84
                     A                      A                      A
 Frequencies --  3088.5977              3094.0016              3102.4266
 Red. masses --     1.1010                 1.1025                 1.1020
 Frc consts  --     6.1883                 6.2182                 6.2496
 IR Inten    --    36.4507                23.6883                23.1596

 - Thermochemistry -
 -------------------
 Temperature   298.150 Kelvin.  Pressure   1.00000 Atm.
 Atom     1 has atomic number  6 and mass  12.00000

 Molecular mass:   159.13850 amu.
 Principal axes and moments of inertia in atomic units:
                           1         2         3
     Eigenvalues --  1078.948552723.330073197.09577
           X            0.99997  -0.00683   0.00396
           Y            0.00683   0.99998  -0.00105
           Z           -0.00395   0.00108   0.99999
 This molecule is an asymmetric top.
 Rotational symmetry number  1.
 Warning -- assumption of classical behavior for rotation
           may cause significant error
 Rotational temperatures (Kelvin)      0.08028     0.03180     0.02709
 Rotational constants (GHZ):           1.67269     0.66270     0.56449
    1 imaginary frequencies ignored.
 Zero-point vibrational energy     690320.8 (Joules/Mol)
                                  164.99064 (Kcal/Mol)
 Warning -- explicit consideration of  20 degrees of freedom as
           vibrations may cause significant error
 Vibrational temperatures:     60.29   126.92   177.07   192.23   217.26
          (Kelvin)            261.25   279.92   299.07   344.55   350.60
                              409.97   417.21   499.11   521.50   558.45
                              588.62   633.83   678.45   775.95   809.09
                             1057.14  1159.82  1205.85  1239.08  1296.56
                             1334.62  1349.09  1370.61  1376.83  1412.57
                             1430.85  1451.18  1470.56  1530.01  1565.08
                             1588.44  1620.72  1657.35  1671.28  1708.79
                             1763.68  1798.61  1839.04  1854.33  1893.58
                             1902.81  1933.66  1959.10  1986.47  2002.90
                             2006.04  2012.63  2031.57  2037.08  2108.98
                             2111.61  2124.47  2130.53  2137.09  2142.69
                             2149.11  2158.14  2158.58  2162.40  2169.07
                             4275.83  4282.91  4295.04  4319.64  4338.07
                             4344.93  4356.94  4360.21  4367.94  4393.45
                             4398.53  4413.37  4419.78  4421.58  4433.62
                             4443.80  4451.57  4463.69

 Zero-point correction=                           0.262929 (Hartree/Particle)
 Thermal correction to Energy=                    0.276227
 Thermal correction to Enthalpy=                  0.277171
 Thermal correction to Gibbs Free Energy=         0.223376
 Sum of electronic and zero-point Energies=           -504.574821
 Sum of electronic and thermal Energies=              -504.561523
 Sum of electronic and thermal Enthalpies=            -504.560579
 Sum of electronic and thermal Free Energies=         -504.614374

                     E (Thermal)             CV                S
                      KCal/Mol        Cal/Mol-Kelvin    Cal/Mol-Kelvin
 Total                  173.335             50.034            113.221
 Electronic               0.000              0.000              1.377
 Translational            0.889              2.981             41.103
 Rotational               0.889              2.981             30.619
 Vibrational            171.558             44.072             40.121
 Vibration     1          0.595              1.980              5.167
 Vibration     2          0.601              1.957              3.699
 Vibration     3          0.610              1.930              3.052
 Vibration     4          0.613              1.920              2.893
 Vibration     5          0.618              1.902              2.660
 Vibration     6          0.630              1.865              2.312
 Vibration     7          0.635              1.847              2.184
 Vibration     8          0.641              1.829              2.062
 Vibration     9          0.657              1.780              1.807
 Vibration    10          0.659              1.773              1.776
 Vibration    11          0.683              1.702              1.504
 Vibration    12          0.686              1.692              1.474
 Vibration    13          0.725              1.582              1.180
 Vibration    14          0.736              1.550              1.112
 Vibration    15          0.756              1.496              1.007
 Vibration    16          0.773              1.450              0.930
 Vibration    17          0.800              1.382              0.825
 Vibration    18          0.828              1.313              0.733
 Vibration    19          0.894              1.163              0.567
 Vibration    20          0.918              1.113              0.519

 Normal termination of Gaussian 09 at Sat Feb 15 18:54:55 2014.
