 Gaussian 09, Revision C.01,
 Gaussian 09:  EM64L-G09RevC.01 23-Sep-2011

 ----------------------------
 #p ub3lyp/6-311++g(d,p) freq
 ----------------------------

 (Enter /usr/caen/gaussian-09revc/g09/l101.exe)
 -----------------------------------------------------
 TS_1_C9H18O_1 using B3LYP/6-311++g(d,p) to calc. freq
 -----------------------------------------------------
 Charge =  0 Multiplicity = 2

                         Standard orientation:
 ---------------------------------------------------------------------
 Center     Atomic      Atomic             Coordinates (Angstroms)
 Number     Number       Type             X           Y           Z
 ---------------------------------------------------------------------
      1          6           0       -3.146458   -1.784668   -0.026887
      2          1           0       -2.815013   -2.823568    0.049918
      3          1           0       -3.351204   -1.567450   -1.078248
      4          1           0       -4.081987   -1.685653    0.530230
      5          6           0       -2.052123   -0.839727    0.521607
      6          1           0       -1.872944   -1.099591    1.572857
      7          6           0       -0.734603   -0.995376   -0.262229
      8          1           0       -0.566838   -2.065701   -0.427677
      9          1           0       -0.859676   -0.546226   -1.253210
     10          6           0        0.500857   -0.403179    0.427618
     11          1           0        0.618869   -0.864097    1.417652
     12          1           0        0.349169    0.666732    0.598179
     13          6           0        1.784895   -0.617015   -0.383755
     14          1           0        1.685937   -0.115280   -1.355843
     15          1           0        1.885087   -1.687645   -0.603809
     16          6           0        3.081248   -0.136874    0.296236
     17          1           0        3.137701   -0.621377    1.281182
     18          6           0        4.307828   -0.580282   -0.513714
     19          1           0        4.299162   -0.129168   -1.512145
     20          1           0        5.237865   -0.278999   -0.022599
     21          1           0        4.332295   -1.666843   -0.640013
     22          6           0       -2.596663    0.570070    0.522637
     23          1           0       -3.364063    0.822368    1.261239
     24          1           0       -1.707941    1.550511    0.684225
     25          6           0        3.103829    1.382841    0.515772
     26          1           0        4.038975    1.693670    0.990941
     27          1           0        3.024197    1.914160   -0.439189
     28          1           0        2.283907    1.721166    1.153896
     29          8           0       -2.840511    1.151372   -0.718818
     30          8           0       -1.880284    2.249659   -0.380095
 ---------------------------------------------------------------------

 SCF Done:  E(UB3LYP) =  -504.802834276     A.U. after   19 cycles

 The electronic state is 2-A.
 Alpha  occ. eigenvalues --  -19.20162 -19.19311 -10.26248 -10.20146 -10.17799
 Alpha  occ. eigenvalues --  -10.17502 -10.17468 -10.16991 -10.16546 -10.15736
 Alpha  occ. eigenvalues --  -10.15661  -1.13657  -0.90076  -0.83057  -0.80942
 Alpha  occ. eigenvalues --   -0.75739  -0.69762  -0.68469  -0.68284  -0.61491
 Alpha  occ. eigenvalues --   -0.58603  -0.56137  -0.52209  -0.51419  -0.48045
 Alpha  occ. eigenvalues --   -0.46915  -0.44940  -0.44219  -0.43414  -0.42476
 Alpha  occ. eigenvalues --   -0.41345  -0.40383  -0.39708  -0.38620  -0.38229
 Alpha  occ. eigenvalues --   -0.37148  -0.36102  -0.35677  -0.34619  -0.33933
 Alpha  occ. eigenvalues --   -0.32491  -0.32287  -0.31538  -0.27200  -0.26259
 Alpha virt. eigenvalues --   -0.02942  -0.01436  -0.00407   0.00148   0.00780
 Alpha virt. eigenvalues --    0.01580   0.01839   0.02547   0.03455   0.03513
 Alpha virt. eigenvalues --    0.04018   0.04461   0.05078   0.05396   0.05926

  Beta  occ. eigenvalues --  -19.19418 -19.18451 -10.25428 -10.20145 -10.17718
  Beta  occ. eigenvalues --  -10.17501 -10.17450 -10.16990 -10.16547 -10.15736
  Beta  occ. eigenvalues --  -10.15661  -1.12075  -0.87276  -0.82807  -0.80778
  Beta  occ. eigenvalues --   -0.75597  -0.68819  -0.68466  -0.67804  -0.61257
  Beta  occ. eigenvalues --   -0.57993  -0.56077  -0.51517  -0.48991  -0.47678
  Beta  occ. eigenvalues --   -0.46290  -0.44822  -0.44075  -0.43247  -0.42331
  Beta  occ. eigenvalues --   -0.40806  -0.39848  -0.38624  -0.38070  -0.38049
  Beta  occ. eigenvalues --   -0.36966  -0.35970  -0.34987  -0.34312  -0.33882
  Beta  occ. eigenvalues --   -0.32440  -0.32255  -0.31379  -0.25977
  Beta virt. eigenvalues --   -0.13119  -0.02043  -0.01369  -0.00370   0.00254
  Beta virt. eigenvalues --    0.00811   0.01656   0.01901   0.02563   0.03476
  Beta virt. eigenvalues --    0.03644   0.04040   0.04506   0.05113   0.05452

 Mulliken atomic charges:
              1
     1  C   -0.556549
     2  H    0.132495
     3  H    0.172271
     4  H    0.160967
     5  C    1.107612
     6  H    0.170072
     7  C   -0.841935
     8  H    0.148334
     9  H    0.209874
    10  C   -0.121124
    11  H    0.131443
    12  H    0.027015
    13  C   -0.659580
    14  H    0.138711
    15  H    0.115122
    16  C    0.471787
    17  H    0.133925
    18  C   -0.622249
    19  H    0.138077
    20  H    0.151803
    21  H    0.129126
    22  C   -0.845890
    23  H    0.229892
    24  H    0.232306
    25  C   -0.646104
    26  H    0.139542
    27  H    0.143680
    28  H    0.144957
    29  O   -0.054776
    30  O   -0.080807
 Sum of Mulliken atomic charges =   0.00000

 Dipole moment (field-independent basis, Debye):
    X=              0.2936    Y=             -2.4987    Z=              2.0896  Tot=              3.2705
 Quadrupole moment (field-independent basis, Debye-Ang):
   XX=            -73.1198   YY=            -76.5463   ZZ=            -72.2397
   XY=              5.8972   XZ=             -5.1261   YZ=              2.1689

  Exact polarizability: 137.715   6.815 126.490  -2.858  -0.977 105.707
 Approx polarizability: 162.586  11.847 183.431  -0.727  -7.459 165.260

 ******    1 imaginary frequencies (negative Signs) ******

                     1                      2                      3
                     A                      A                      A
 Frequencies -- -1819.8939                28.3573                40.2409
 Red. masses --     1.0938                 2.7668                 4.8564
 Frc consts  --     2.1343                 0.0013                 0.0046
 IR Inten    --    66.2817                 0.4932                 1.6715

                     4                      5                      6
                     A                      A                      A
 Frequencies --    76.8289                95.5437               100.6012
 Red. masses --     3.4631                 3.0888                 2.9169
 Frc consts  --     0.0120                 0.0166                 0.0174
 IR Inten    --     2.3986                 0.0479                 1.4623

                     7                      8                      9
                     A                      A                      A
 Frequencies --   120.7969               143.8108               220.3984
 Red. masses --     2.4833                 2.6694                 1.4226
 Frc consts  --     0.0213                 0.0325                 0.0407
 IR Inten    --     0.3702                 0.6945                 0.2660

                    10                     11                     12
                     A                      A                      A
 Frequencies --   226.0721               233.0676               240.3440
 Red. masses --     1.2108                 2.4816                 2.1480
 Frc consts  --     0.0365                 0.0794                 0.0731
 IR Inten    --     0.5015                 1.2227                 2.1262

                    13                     14                     15
                     A                      A                      A
 Frequencies --   257.9524               263.9546               355.2565
 Red. masses --     1.3041                 1.6430                 2.4949
 Frc consts  --     0.0511                 0.0674                 0.1855
 IR Inten    --     1.0085                 0.3609                 0.0811

                    16                     17                     18
                     A                      A                      A
 Frequencies --   377.0222               413.8198               446.1137
 Red. masses --     2.6115                 2.2901                 2.1998
 Frc consts  --     0.2187                 0.2311                 0.2579
 IR Inten    --     1.3461                 0.0562                 1.0956

                    19                     20                     21
                     A                      A                      A
 Frequencies --   497.2523               600.7377               628.0581
 Red. masses --     2.8074                 2.5269                 2.2641
 Frc consts  --     0.4090                 0.5373                 0.5262
 IR Inten    --     0.8820                 5.0458                10.2248

                    22                     23                     24
                     A                      A                      A
 Frequencies --   744.8237               793.0363               804.4685
 Red. masses --     1.1520                10.8131                 2.6530
 Frc consts  --     0.3765                 4.0067                 1.0116
 IR Inten    --     4.5910                 0.1235                 0.8276

                    25                     26                     27
                     A                      A                      A
 Frequencies --   843.9324               857.7368               904.2490
 Red. masses --     1.4552                 2.2529                 2.3338
 Frc consts  --     0.6106                 0.9765                 1.1243
 IR Inten    --     2.6870                 2.7037                 4.9969

                    28                     29                     30
                     A                      A                      A
 Frequencies --   928.8942               941.0386               945.1299
 Red. masses --     1.2276                 2.1264                 1.6456
 Frc consts  --     0.6241                 1.1095                 0.8661
 IR Inten    --     1.6828                 5.8630                 1.6309

                    31                     32                     33
                     A                      A                      A
 Frequencies --   964.3067               985.1502              1006.2491
 Red. masses --     1.4468                 1.9966                 1.9651
 Frc consts  --     0.7927                 1.1417                 1.1723
 IR Inten    --     0.0598                 2.6212                 1.6480

                    34                     35                     36
                     A                      A                      A
 Frequencies --  1030.2085              1058.6162              1062.6895
 Red. masses --     2.0694                 2.4060                 1.6051
 Frc consts  --     1.2940                 1.5886                 1.0680
 IR Inten    --    14.8518                 9.3979                25.1261

                    37                     38                     39
                     A                      A                      A
 Frequencies --  1085.4059              1121.1182              1140.7904
 Red. masses --     2.0241                 1.2782                 2.1698
 Frc consts  --     1.4049                 0.9466                 1.6638
 IR Inten    --     5.2210                20.6206                 0.7371

                    40                     41                     42
                     A                      A                      A
 Frequencies --  1172.0553              1177.1683              1189.9149
 Red. masses --     1.9365                 2.1150                 1.7795
 Frc consts  --     1.5673                 1.7268                 1.4845
 IR Inten    --    16.1656                 1.5285                 4.0804

                    43                     44                     45
                     A                      A                      A
 Frequencies --  1222.6544              1271.4137              1296.6013
 Red. masses --     1.5700                 1.2498                 1.3438
 Frc consts  --     1.3828                 1.1903                 1.3310
 IR Inten    --     2.3996                 0.2903                 2.1099

                    46                     47                     48
                     A                      A                      A
 Frequencies --  1315.2890              1334.8607              1338.3766
 Red. masses --     1.2295                 1.1202                 1.2984
 Frc consts  --     1.2532                 1.1761                 1.3703
 IR Inten    --     0.4071                 0.6871                 5.7073

                    49                     50                     51
                     A                      A                      A
 Frequencies --  1358.4183              1369.6634              1373.5552
 Red. masses --     1.3723                 1.3455                 1.3708
 Frc consts  --     1.4920                 1.4872                 1.5237
 IR Inten    --     6.9374                 2.5711                 1.1230

                    52                     53                     54
                     A                      A                      A
 Frequencies --  1387.0177              1394.2107              1401.8191
 Red. masses --     1.3933                 1.4631                 1.2483
 Frc consts  --     1.5792                 1.6756                 1.4453
 IR Inten    --     3.8043                 1.2026                 8.9469

                    55                     56                     57
                     A                      A                      A
 Frequencies --  1411.8303              1422.1818              1480.4774
 Red. masses --     1.3040                 1.2374                 1.0716
 Frc consts  --     1.5314                 1.4746                 1.3838
 IR Inten    --     2.7749                 5.9276                 0.1555

                    58                     59                     60
                     A                      A                      A
 Frequencies --  1487.3199              1490.2189              1495.0035
 Red. masses --     1.0756                 1.0449                 1.0442
 Frc consts  --     1.4018                 1.3671                 1.3750
 IR Inten    --     0.7345                 0.8418                 8.8306

                    61                     62                     63
                     A                      A                      A
 Frequencies --  1496.1655              1502.0067              1506.0417
 Red. masses --     1.0578                 1.0717                 1.0584
 Frc consts  --     1.3952                 1.4245                 1.4144
 IR Inten    --     1.9254                 2.4852                 5.8645

                    64                     65                     66
                     A                      A                      A
 Frequencies --  1506.9546              1511.9968              1944.3585
 Red. masses --     1.0749                 1.0523                 1.0450
 Frc consts  --     1.4382                 1.4175                 2.3277
 IR Inten    --     7.4106                18.0233                10.9204

                    67                     68                     69
                     A                      A                      A
 Frequencies --  2982.2000              2991.6294              2998.8185
 Red. masses --     1.0808                 1.0618                 1.0692
 Frc consts  --     5.6633                 5.5992                 5.6650
 IR Inten    --     9.0674                 5.9433                35.8604

                    70                     71                     72
                     A                      A                      A
 Frequencies --  3009.8273              3012.4146              3018.5264
 Red. masses --     1.0817                 1.0358                 1.0420
 Frc consts  --     5.7734                 5.5379                 5.5941
 IR Inten    --    15.1515                35.4414                25.1217

                    73                     74                     75
                     A                      A                      A
 Frequencies --  3019.7019              3024.8157              3026.9538
 Red. masses --     1.0582                 1.0960                 1.0368
 Frc consts  --     5.6854                 5.9083                 5.5971
 IR Inten    --    23.3986                28.1616                32.4499

                    76                     77                     78
                     A                      A                      A
 Frequencies --  3053.2074              3056.2426              3070.8902
 Red. masses --     1.0914                 1.0864                 1.1009
 Frc consts  --     5.9944                 5.9787                 6.1169
 IR Inten    --     4.3706                31.4837                 3.9959

                    79                     80                     81
                     A                      A                      A
 Frequencies --  3072.2443              3077.7507              3081.3980
 Red. masses --     1.1005                 1.1004                 1.1012
 Frc consts  --     6.1201                 6.1411                 6.1604
 IR Inten    --    43.1173                71.6680                59.0654

                    82                     83                     84
                     A                      A                      A
 Frequencies --  3090.8457              3092.3943              3101.0517
 Red. masses --     1.0995                 1.1022                 1.1026
 Frc consts  --     6.1885                 6.2101                 6.2473
 IR Inten    --    36.9481                37.4621                21.5877

 - Thermochemistry -
 -------------------
 Temperature   298.150 Kelvin.  Pressure   1.00000 Atm.
 Atom     1 has atomic number  6 and mass  12.00000

 Molecular mass:   159.13850 amu.
 Principal axes and moments of inertia in atomic units:
                           1         2         3
     Eigenvalues --  1019.215824112.926284786.84477
           X            0.99972   0.02262  -0.00690
           Y           -0.02239   0.99925   0.03149
           Z            0.00760  -0.03133   0.99948
 This molecule is an asymmetric top.
 Rotational symmetry number  1.
 Warning -- assumption of classical behavior for rotation
           may cause significant error
 Rotational temperatures (Kelvin)      0.08498     0.02106     0.01809
 Rotational constants (GHZ):           1.77072     0.43880     0.37702
    1 imaginary frequencies ignored.
 Zero-point vibrational energy     689184.0 (Joules/Mol)
                                  164.71892 (Kcal/Mol)
 Warning -- explicit consideration of  19 degrees of freedom as
           vibrations may cause significant error
 Vibrational temperatures:     40.80    57.90   110.54   137.47   144.74
          (Kelvin)            173.80   206.91   317.10   325.27   335.33
                              345.80   371.14   379.77   511.13   542.45
                              595.39   641.86   715.43   864.33   903.63
                             1071.63  1141.00  1157.45  1214.23  1234.09
                             1301.01  1336.47  1353.94  1359.83  1387.42
                             1417.41  1447.77  1482.24  1523.11  1528.97
                             1561.65  1613.04  1641.34  1686.32  1693.68
                             1712.02  1759.12  1829.28  1865.52  1892.41
                             1920.56  1925.62  1954.46  1970.64  1976.24
                             1995.61  2005.96  2016.90  2031.31  2046.20
                             2130.07  2139.92  2144.09  2150.97  2152.65
                             2161.05  2166.86  2168.17  2175.42  2797.49
                             4290.72  4304.28  4314.63  4330.46  4334.19
                             4342.98  4344.67  4352.03  4355.11  4392.88
                             4397.25  4418.32  4420.27  4428.19  4433.44
                             4447.03  4449.26  4461.72

 Zero-point correction=                           0.262496 (Hartree/Particle)
 Thermal correction to Energy=                    0.276544
 Thermal correction to Enthalpy=                  0.277489
 Thermal correction to Gibbs Free Energy=         0.220055
 Sum of electronic and zero-point Energies=           -504.540338
 Sum of electronic and thermal Energies=              -504.526290
 Sum of electronic and thermal Enthalpies=            -504.525346
 Sum of electronic and thermal Free Energies=         -504.582780

                     E (Thermal)             CV                S
                      KCal/Mol        Cal/Mol-Kelvin    Cal/Mol-Kelvin
 Total                  173.534             50.590            120.880
 Electronic               0.000              0.000              1.377
 Translational            0.889              2.981             41.103
 Rotational               0.889              2.981             31.373
 Vibrational            171.757             44.628             47.026
 Vibration     1          0.593              1.984              5.941
 Vibration     2          0.594              1.981              5.247
 Vibration     3          0.599              1.965              3.970
 Vibration     4          0.603              1.952              3.543
 Vibration     5          0.604              1.949              3.443
 Vibration     6          0.609              1.932              3.088
 Vibration     7          0.616              1.909              2.753
 Vibration     8          0.647              1.810              1.956
 Vibration     9          0.650              1.801              1.910
 Vibration    10          0.654              1.790              1.855
 Vibration    11          0.657              1.779              1.800
 Vibration    12          0.667              1.749              1.676
 Vibration    13          0.671              1.739              1.635
 Vibration    14          0.731              1.564              1.143
 Vibration    15          0.748              1.519              1.051
 Vibration    16          0.777              1.440              0.913
 Vibration    17          0.805              1.369              0.808
 Vibration    18          0.853              1.256              0.665
 Vibration    19          0.959              1.030              0.448

 Normal termination of Gaussian 09 at Fri Feb 21 14:01:48 2014.
