 Gaussian 09, Revision C.01,
 Gaussian 09:  EM64L-G09RevC.01 23-Sep-2011

 ----------------------------------------------
 #p opt=(calcfc,qst3) freq ub3lyp/6-311++g(d,p)
 ----------------------------------------------

 (Enter /usr/caen/gaussian-09revc/g09/l101.exe)
 --------------------------------------------------------
 TS_1_1c using B3LYP/6-311++g(d,p) to find TS | reactants
 --------------------------------------------------------
 Charge =  0 Multiplicity = 2

 --------
 products
 --------
 Charge =  0 Multiplicity = 2

 -------------
 intermediates
 -------------
 Charge =  0 Multiplicity = 2

 SCF Done:  E(UB3LYP) =  -504.824171662     A.U. after   18 cycles
 SCF Done:  E(UB3LYP) =  -504.824775464     A.U. after   17 cycles
 SCF Done:  E(UB3LYP) =  -504.819716683     A.U. after   18 cycles
 SCF Done:  E(UB3LYP) =  -504.821099481     A.U. after   17 cycles
 SCF Done:  E(UB3LYP) =  -504.823497249     A.U. after   16 cycles
 SCF Done:  E(UB3LYP) =  -504.824061198     A.U. after   15 cycles
 SCF Done:  E(UB3LYP) =  -504.824157847     A.U. after   14 cycles
 SCF Done:  E(UB3LYP) =  -504.824167050     A.U. after   14 cycles
 SCF Done:  E(UB3LYP) =  -504.824015005     A.U. after   18 cycles
 SCF Done:  E(UB3LYP) =  -504.824166361     A.U. after   16 cycles
 SCF Done:  E(UB3LYP) =  -504.824160877     A.U. after   15 cycles
 SCF Done:  E(UB3LYP) =  -504.824166400     A.U. after   12 cycles
 SCF Done:  E(UB3LYP) =  -504.824169405     A.U. after   14 cycles
 SCF Done:  E(UB3LYP) =  -504.824168610     A.U. after   13 cycles
 SCF Done:  E(UB3LYP) =  -504.824168791     A.U. after   12 cycles
 Optimization completed.
    -- Stationary point found.
 Normal termination of Gaussian 09 at Sat Feb 15 19:39:34 2014.

 ----------------------------------------------------------------------
 #P Geom=AllCheck Guess=TCheck SCRF=Check GenChk UB3LYP/6-311++G(d,p) F
 req
 ----------------------------------------------------------------------

 Structure from the checkpoint file:  TS_1_1c.chk
 --------------------------------------------------------
 TS_1_1c using B3LYP/6-311++g(d,p) to find TS | reactants
 --------------------------------------------------------
 Charge =  0 Multiplicity = 2

                         Standard orientation:
 ---------------------------------------------------------------------
 Center     Atomic      Atomic             Coordinates (Angstroms)
 Number     Number       Type             X           Y           Z
 ---------------------------------------------------------------------
      1          6           0       -3.014468    1.695418   -0.138262
      2          1           0       -2.760755    2.346631   -0.978727
      3          1           0       -3.086976    2.331052    0.756544
      4          1           0       -3.998877    1.257702   -0.317290
      5          6           0       -1.967002    0.625679    0.066289
      6          1           0       -2.079219   -0.230372   -0.968475
      7          6           0       -0.545155    1.118936    0.234025
      8          1           0       -0.415275    2.024694   -0.369091
      9          1           0       -0.415227    1.444850    1.279991
     10          6           0        0.568683    0.118773   -0.119308
     11          1           0        0.460016   -0.178405   -1.168953
     12          1           0        0.449804   -0.795225    0.468645
     13          6           0        1.967470    0.707400    0.103054
     14          1           0        2.095065    0.954305    1.166372
     15          1           0        2.036916    1.659353   -0.438607
     16          6           0        3.136611   -0.191287   -0.342458
     17          1           0        2.970111   -0.452580   -1.396585
     18          6           0        4.464145    0.574987   -0.254654
     19          1           0        4.679653    0.866149    0.779520
     20          1           0        5.299396   -0.037505   -0.606496
     21          1           0        4.440170    1.487117   -0.858527
     22          6           0       -2.433745   -0.550893    0.946522
     23          1           0       -1.586172   -1.164348    1.266646
     24          1           0       -3.027805   -0.247957    1.814948
     25          6           0        3.213993   -1.497985    0.460209
     26          1           0        4.059195   -2.108778    0.129908
     27          1           0        3.353056   -1.290545    1.527480
     28          1           0        2.310978   -2.103232    0.350683
     29          8           0       -3.306560   -1.303675    0.101763
     30          8           0       -2.584347   -1.367460   -1.123074
 ---------------------------------------------------------------------

 SCF Done:  E(UB3LYP) =  -504.824168791     A.U. after    1 cycles

 The electronic state is 2-A.
 Alpha  occ. eigenvalues --  -19.18721 -19.17977 -10.23627 -10.21520 -10.18831
 Alpha  occ. eigenvalues --  -10.17910 -10.17881 -10.17679 -10.17181 -10.16108
 Alpha  occ. eigenvalues --  -10.16067  -1.13421  -0.88290  -0.83965  -0.81484
 Alpha  occ. eigenvalues --   -0.76309  -0.69983  -0.68872  -0.68614  -0.61772
 Alpha  occ. eigenvalues --   -0.57904  -0.56539  -0.53028  -0.49835  -0.48758
 Alpha  occ. eigenvalues --   -0.47908  -0.45458  -0.44095  -0.43914  -0.43459
 Alpha  occ. eigenvalues --   -0.41586  -0.40568  -0.39709  -0.38996  -0.38548
 Alpha  occ. eigenvalues --   -0.37441  -0.36586  -0.35990  -0.34903  -0.33796
 Alpha  occ. eigenvalues --   -0.32928  -0.32806  -0.32177  -0.25971  -0.24404
 Alpha virt. eigenvalues --   -0.01608  -0.00526   0.00062   0.00472   0.00971
 Alpha virt. eigenvalues --    0.01691   0.01893   0.02515   0.03494   0.03769
 Alpha virt. eigenvalues --    0.03804   0.04404   0.04780   0.05657   0.06150

  Beta  occ. eigenvalues --  -19.18565 -19.16674 -10.23630 -10.20695 -10.18856
  Beta  occ. eigenvalues --  -10.17911 -10.17901 -10.17655 -10.17180 -10.16108
  Beta  occ. eigenvalues --  -10.16067  -1.12168  -0.86253  -0.83296  -0.81049
  Beta  occ. eigenvalues --   -0.76035  -0.69712  -0.68871  -0.68332  -0.61613
  Beta  occ. eigenvalues --   -0.56896  -0.56015  -0.51484  -0.49316  -0.48331
  Beta  occ. eigenvalues --   -0.47593  -0.45263  -0.43939  -0.43678  -0.42825
  Beta  occ. eigenvalues --   -0.40449  -0.40284  -0.39451  -0.38943  -0.37419
  Beta  occ. eigenvalues --   -0.37216  -0.36318  -0.35073  -0.34413  -0.33155
  Beta  occ. eigenvalues --   -0.32867  -0.32579  -0.32050  -0.24366
  Beta virt. eigenvalues --   -0.13138  -0.01556  -0.00503   0.00093   0.00530
  Beta virt. eigenvalues --    0.01089   0.01871   0.01949   0.02565   0.03515
  Beta virt. eigenvalues --    0.03808   0.03857   0.04449   0.04804   0.05815

 Mulliken atomic charges:
              1
     1  C   -0.282015
     2  H    0.157750
     3  H    0.154453
     4  H    0.190598
     5  C    0.150598
     6  H    0.312502
     7  C   -0.579739
     8  H    0.131999
     9  H    0.180131
    10  C   -0.047066
    11  H    0.156344
    12  H    0.079645
    13  C   -0.739431
    14  H    0.132674
    15  H    0.125939
    16  C    0.496926
    17  H    0.141745
    18  C   -0.622110
    19  H    0.135648
    20  H    0.153530
    21  H    0.130373
    22  C   -0.554024
    23  H    0.174811
    24  H    0.183045
    25  C   -0.659269
    26  H    0.144319
    27  H    0.142523
    28  H    0.145162
    29  O   -0.009088
    30  O   -0.127976
 Sum of Mulliken atomic charges =   0.00000

 Dipole moment (field-independent basis, Debye):
    X=              1.9631    Y=              2.8472    Z=              1.7244  Tot=              3.8644
 Quadrupole moment (field-independent basis, Debye-Ang):
   XX=            -80.5478   YY=            -75.5225   ZZ=            -71.4199
   XY=             -9.2238   XZ=             -5.7543   YZ=             -2.5869

  Exact polarizability: 142.948   4.385 129.514   0.413   3.977 107.376
 Approx polarizability: 166.787  11.048 185.761  -0.236  12.601 172.314

 ******    1 imaginary frequencies (negative Signs) ******

                     1                      2                      3
                     A                      A                      A
 Frequencies -- -2054.5455                12.3204                52.6567
 Red. masses --     1.1049                 2.7494                 3.1211
 Frc consts  --     2.7480                 0.0002                 0.0051
 IR Inten    --   855.7960                 0.9612                 0.1765

                     4                      5                      6
                     A                      A                      A
 Frequencies --    58.8851                91.3691               122.9951
 Red. masses --     4.8584                 1.7805                 2.3162
 Frc consts  --     0.0099                 0.0088                 0.0206
 IR Inten    --     3.0876                 0.0560                 0.2097

                     7                      8                      9
                     A                      A                      A
 Frequencies --   131.2795               211.5714               219.2568
 Red. masses --     3.4435                 1.2889                 2.4960
 Frc consts  --     0.0350                 0.0340                 0.0707
 IR Inten    --     2.0151                 0.3904                 0.7241

                    10                     11                     12
                     A                      A                      A
 Frequencies --   221.3118               237.6365               250.1755
 Red. masses --     1.0709                 2.0434                 1.2202
 Frc consts  --     0.0309                 0.0680                 0.0450
 IR Inten    --     0.0568                 0.4517                 0.1702

                    13                     14                     15
                     A                      A                      A
 Frequencies --   270.5777               310.7385               359.6259
 Red. masses --     3.7548                 2.9669                 2.5948
 Frc consts  --     0.1620                 0.1688                 0.1977
 IR Inten    --     1.9486                 0.0775                 0.4227

                    16                     17                     18
                     A                      A                      A
 Frequencies --   383.7574               424.2689               428.6276
 Red. masses --     2.1183                 2.2437                 2.0367
 Frc consts  --     0.1838                 0.2380                 0.2205
 IR Inten    --     0.3743                 0.2352                 0.4423

                    19                     20                     21
                     A                      A                      A
 Frequencies --   498.2126               572.2268               676.6896
 Red. masses --     2.8128                 3.5224                 5.1010
 Frc consts  --     0.4114                 0.6796                 1.3762
 IR Inten    --     0.3386                 1.3661                 1.3685

                    22                     23                     24
                     A                      A                      A
 Frequencies --   732.7303               797.2364               833.2674
 Red. masses --     1.1686                 2.1256                 2.1612
 Frc consts  --     0.3697                 0.7960                 0.8841
 IR Inten    --     4.2460                 0.7999                 1.6396

                    25                     26                     27
                     A                      A                      A
 Frequencies --   850.2230               883.6881               928.1011
 Red. masses --     1.9015                 5.6402                 1.2238
 Frc consts  --     0.8099                 2.5950                 0.6211
 IR Inten    --     0.7310                36.2654                 1.1927

                    28                     29                     30
                     A                      A                      A
 Frequencies --   943.7942               944.3072               953.6978
 Red. masses --     1.5343                 1.9141                 1.5112
 Frc consts  --     0.8052                 1.0056                 0.8098
 IR Inten    --     0.1966                 1.1558                 2.0297

                    31                     32                     33
                     A                      A                      A
 Frequencies --   962.9321               967.5981               999.3028
 Red. masses --     1.4469                 6.4651                 1.7300
 Frc consts  --     0.7904                 3.5663                 1.0179
 IR Inten    --     0.2051                 8.2882                 1.3058

                    34                     35                     36
                     A                      A                      A
 Frequencies --  1033.5869              1047.1606              1061.4171
 Red. masses --     3.0839                 1.9294                 1.6958
 Frc consts  --     1.9411                 1.2465                 1.1256
 IR Inten    --     0.8827                 2.9633                 2.4555

                    37                     38                     39
                     A                      A                      A
 Frequencies --  1121.9351              1135.7375              1153.8013
 Red. masses --     1.8452                 1.3683                 1.8795
 Frc consts  --     1.3684                 1.0399                 1.4742
 IR Inten    --     7.1024                17.4030                13.3557

                    40                     41                     42
                     A                      A                      A
 Frequencies --  1187.8109              1197.2895              1223.6760
 Red. masses --     1.8055                 1.9683                 1.6203
 Frc consts  --     1.5009                 1.6624                 1.4295
 IR Inten    --     7.4281                 0.8516                 8.0922

                    43                     44                     45
                     A                      A                      A
 Frequencies --  1236.3191              1259.3930              1284.9269
 Red. masses --     1.5037                 1.6894                 1.3845
 Frc consts  --     1.3541                 1.5787                 1.3468
 IR Inten    --     3.5716                 2.3310                 2.6190

                    46                     47                     48
                     A                      A                      A
 Frequencies --  1301.1956              1328.9434              1340.8817
 Red. masses --     1.3164                 1.1279                 1.2955
 Frc consts  --     1.3131                 1.1737                 1.3724
 IR Inten    --     1.7224                 1.2570                 3.5555

                    49                     50                     51
                     A                      A                      A
 Frequencies --  1352.0874              1369.8399              1383.3776
 Red. masses --     1.3171                 1.3255                 1.4901
 Frc consts  --     1.4187                 1.4655                 1.6801
 IR Inten    --     3.1197                 3.3275                 0.6103

                    52                     53                     54
                     A                      A                      A
 Frequencies --  1396.7910              1401.4581              1404.5183
 Red. masses --     1.4886                 1.2841                 1.2468
 Frc consts  --     1.7111                 1.4860                 1.4491
 IR Inten    --     3.0961                 9.4691                 6.2793

                    55                     56                     57
                     A                      A                      A
 Frequencies --  1420.2776              1465.5388              1479.7600
 Red. masses --     1.2393                 1.0764                 1.0733
 Frc consts  --     1.4729                 1.3621                 1.3847
 IR Inten    --     5.9152                 0.4760                 0.8224

                    58                     59                     60
                     A                      A                      A
 Frequencies --  1480.7427              1487.9549              1489.4968
 Red. masses --     1.0565                 1.0563                 1.0444
 Frc consts  --     1.3649                 1.3780                 1.3652
 IR Inten    --     6.1176                 7.8393                 1.0589

                    61                     62                     63
                     A                      A                      A
 Frequencies --  1494.5916              1495.1189              1502.3709
 Red. masses --     1.0706                 1.0719                 1.0919
 Frc consts  --     1.4090                 1.4118                 1.4520
 IR Inten    --     1.3234                 0.8902                 3.8124

                    64                     65                     66
                     A                      A                      A
 Frequencies --  1505.6176              1511.5546              1709.3109
 Red. masses --     1.0573                 1.0505                 1.0375
 Frc consts  --     1.4121                 1.4141                 1.7860
 IR Inten    --     4.2089                16.7176                11.4212

                    67                     68                     69
                     A                      A                      A
 Frequencies --  2948.0898              2984.0046              2984.6402
 Red. masses --     1.0706                 1.0711                 1.0538
 Frc consts  --     5.4823                 5.6192                 5.5309
 IR Inten    --    15.4847                 1.4471                22.1315

                    70                     71                     72
                     A                      A                      A
 Frequencies --  2991.9166              3011.1845              3016.9617
 Red. masses --     1.0691                 1.0367                 1.0388
 Frc consts  --     5.6387                 5.5383                 5.5711
 IR Inten    --    27.3728                29.5707                31.1948

                    73                     74                     75
                     A                      A                      A
 Frequencies --  3018.8191              3024.0988              3027.0201
 Red. masses --     1.0868                 1.0647                 1.0687
 Frc consts  --     5.8353                 5.7368                 5.7695
 IR Inten    --    24.0737                54.4595                 6.3740

                    76                     77                     78
                     A                      A                      A
 Frequencies --  3031.8317              3065.0664              3069.6477
 Red. masses --     1.0841                 1.0804                 1.1005
 Frc consts  --     5.8715                 5.9803                 6.1095
 IR Inten    --     7.4822                12.0443                 2.2559

                    79                     80                     81
                     A                      A                      A
 Frequencies --  3071.6299              3076.5300              3079.9786
 Red. masses --     1.1009                 1.0997                 1.1069
 Frc consts  --     6.1201                 6.1326                 6.1864
 IR Inten    --    41.1424                68.6792                25.8560

                    82                     83                     84
                     A                      A                      A
 Frequencies --  3081.8644              3092.6517              3106.5930
 Red. masses --     1.1012                 1.0996                 1.1022
 Frc consts  --     6.1623                 6.1963                 6.2672
 IR Inten    --    71.1605                36.5554                12.3814

 - Thermochemistry -
 -------------------
 Temperature   298.150 Kelvin.  Pressure   1.00000 Atm.
 Atom     1 has atomic number  6 and mass  12.00000

 Molecular mass:   159.13850 amu.
 Principal axes and moments of inertia in atomic units:
                           1         2         3
     Eigenvalues --   878.627524532.669505014.57650
           X            0.99980  -0.01969  -0.00277
           Y            0.01960   0.99936  -0.03000
           Z            0.00336   0.02994   0.99955
 This molecule is an asymmetric top.
 Rotational symmetry number  1.
 Warning -- assumption of classical behavior for rotation
           may cause significant error
 Rotational temperatures (Kelvin)      0.09858     0.01911     0.01727
 Rotational constants (GHZ):           2.05405     0.39816     0.35990
    1 imaginary frequencies ignored.
 Zero-point vibrational energy     689516.0 (Joules/Mol)
                                  164.79828 (Kcal/Mol)
 Warning -- explicit consideration of  19 degrees of freedom as
           vibrations may cause significant error
 Vibrational temperatures:     17.73    75.76    84.72   131.46   176.96
          (Kelvin)            188.88   304.40   315.46   318.42   341.91
                              359.95   389.30   447.08   517.42   552.14
                              610.43   616.70   716.82   823.31   973.60
                             1054.23  1147.04  1198.88  1223.28  1271.43
                             1335.33  1357.91  1358.65  1372.16  1385.44
                             1392.16  1437.77  1487.10  1506.63  1527.14
                             1614.21  1634.07  1660.06  1708.99  1722.63
                             1760.59  1778.79  1811.98  1848.72  1872.13
                             1912.05  1929.23  1945.35  1970.89  1990.37
                             2009.67  2016.38  2020.79  2043.46  2108.58
                             2129.04  2130.46  2140.83  2143.05  2150.38
                             2151.14  2161.57  2166.25  2174.79  2459.31
                             4241.64  4293.31  4294.23  4304.70  4332.42
                             4340.73  4343.40  4351.00  4355.20  4362.12
                             4409.94  4416.53  4419.38  4426.43  4431.40
                             4434.11  4449.63  4469.69

 Zero-point correction=                           0.262623 (Hartree/Particle)
 Thermal correction to Energy=                    0.276424
 Thermal correction to Enthalpy=                  0.277368
 Thermal correction to Gibbs Free Energy=         0.219971
 Sum of electronic and zero-point Energies=           -504.561546
 Sum of electronic and thermal Energies=              -504.547745
 Sum of electronic and thermal Enthalpies=            -504.546801
 Sum of electronic and thermal Free Energies=         -504.604198

                     E (Thermal)             CV                S
                      KCal/Mol        Cal/Mol-Kelvin    Cal/Mol-Kelvin
 Total                  173.459             50.129            120.803
 Electronic               0.000              0.000              1.377
 Translational            0.889              2.981             41.103
 Rotational               0.889              2.981             31.369
 Vibrational            171.681             44.168             46.954
 Vibration     1          0.593              1.987              7.596
 Vibration     2          0.596              1.977              4.715
 Vibration     3          0.596              1.974              4.494
 Vibration     4          0.602              1.955              3.631
 Vibration     5          0.610              1.930              3.053
 Vibration     6          0.612              1.922              2.927
 Vibration     7          0.643              1.823              2.030
 Vibration     8          0.647              1.812              1.965
 Vibration     9          0.648              1.809              1.948
 Vibration    10          0.656              1.783              1.821
 Vibration    11          0.663              1.762              1.729
 Vibration    12          0.674              1.727              1.593
 Vibration    13          0.700              1.653              1.358
 Vibration    14          0.734              1.555              1.124
 Vibration    15          0.753              1.505              1.024
 Vibration    16          0.786              1.417              0.878
 Vibration    17          0.790              1.408              0.863
 Vibration    18          0.854              1.254              0.663
 Vibration    19          0.928              1.091              0.500

 Optimization completed.
    -- Stationary point found.
 Normal termination of Gaussian 09 at Sat Feb 15 20:16:29 2014.
