 Gaussian 09, Revision C.01,
 Gaussian 09:  EM64L-G09RevC.01 23-Sep-2011

 ----------------------------
 #p freq ub3lyp/6-311++g(d,p)
 ----------------------------

 (Enter /usr/caen/gaussian-09revc/g09/l101.exe)
 -----------------------------------------------
 TS_1_1e using B3LYP/6-311++g(d,p) to clac. freq
 -----------------------------------------------
 Charge =  0 Multiplicity = 2

                         Standard orientation:
 ---------------------------------------------------------------------
 Center     Atomic      Atomic             Coordinates (Angstroms)
 Number     Number       Type             X           Y           Z
 ---------------------------------------------------------------------
      1          6           0        3.542540   -1.399421   -0.269766
      2          1           0        3.394307   -2.306415   -0.861905
      3          1           0        3.717868   -1.700120    0.768542
      4          1           0        4.452587   -0.911771   -0.632853
      5          6           0        2.327885   -0.468591   -0.376713
      6          1           0        2.150009   -0.265697   -1.438503
      7          6           0        1.044308   -1.114214    0.194030
      8          1           0        1.062974   -2.192448   -0.024418
      9          1           0        1.036124   -1.024393    1.286214
     10          6           0       -0.235281   -0.535629   -0.383325
     11          1           0       -0.327577   -0.694767   -1.462991
     12          1           0        0.052307    0.797509   -0.381132
     13          6           0       -1.512231   -0.759258    0.390503
     14          1           0       -1.440523   -0.260003    1.366699
     15          1           0       -1.578986   -1.836015    0.620722
     16          6           0       -2.812021   -0.330947   -0.316097
     17          1           0       -2.834242   -0.831543   -1.294061
     18          6           0       -4.034796   -0.806728    0.480718
     19          1           0       -4.056431   -0.344984    1.473949
     20          1           0       -4.965142   -0.539256   -0.028351
     21          1           0       -4.028083   -1.892389    0.617650
     22          6           0        2.652513    0.871339    0.315011
     23          1           0        3.222227    0.699956    1.234578
     24          1           0        3.234823    1.523366   -0.345532
     25          6           0       -2.875974    1.183738   -0.556098
     26          1           0       -3.808324    1.456274   -1.059248
     27          1           0       -2.834902    1.729984    0.392137
     28          1           0       -2.048786    1.540606   -1.173891
     29          8           0        1.501128    1.575835    0.794182
     30          8           0        0.626137    1.825462   -0.285080
 ---------------------------------------------------------------------

 SCF Done:  E(UB3LYP) =  -504.839717518     A.U. after   17 cycles

 The electronic state is 2-A.
 Alpha  occ. eigenvalues --  -19.18333 -19.17348 -10.22286 -10.19413 -10.18840
 Alpha  occ. eigenvalues --  -10.18192 -10.17885 -10.17611 -10.17256 -10.15995
 Alpha  occ. eigenvalues --  -10.15469  -1.12747  -0.89098  -0.83607  -0.80850
 Alpha  occ. eigenvalues --   -0.75941  -0.69128  -0.68543  -0.67532  -0.61682
 Alpha  occ. eigenvalues --   -0.57627  -0.56602  -0.53385  -0.49399  -0.48072
 Alpha  occ. eigenvalues --   -0.46790  -0.45380  -0.44346  -0.43878  -0.42406
 Alpha  occ. eigenvalues --   -0.41677  -0.39882  -0.39501  -0.38736  -0.38187
 Alpha  occ. eigenvalues --   -0.37662  -0.36365  -0.35894  -0.33762  -0.33588
 Alpha  occ. eigenvalues --   -0.32910  -0.32194  -0.29397  -0.27811  -0.22755
 Alpha virt. eigenvalues --   -0.01212  -0.00430   0.00120   0.00852   0.01831
 Alpha virt. eigenvalues --    0.02017   0.02154   0.03044   0.03461   0.03858
 Alpha virt. eigenvalues --    0.04084   0.04999   0.05310   0.05491   0.05780

  Beta  occ. eigenvalues --  -19.18165 -19.16152 -10.22293 -10.18809 -10.18500
  Beta  occ. eigenvalues --  -10.18214 -10.17882 -10.17630 -10.17256 -10.15995
  Beta  occ. eigenvalues --  -10.15467  -1.11522  -0.87377  -0.82998  -0.80723
  Beta  occ. eigenvalues --   -0.75226  -0.69007  -0.68522  -0.67273  -0.60666
  Beta  occ. eigenvalues --   -0.57101  -0.56488  -0.51836  -0.49083  -0.47620
  Beta  occ. eigenvalues --   -0.46524  -0.45098  -0.43912  -0.43450  -0.41540
  Beta  occ. eigenvalues --   -0.40241  -0.39460  -0.39215  -0.38618  -0.37985
  Beta  occ. eigenvalues --   -0.37290  -0.35927  -0.35584  -0.33599  -0.33404
  Beta  occ. eigenvalues --   -0.32833  -0.32037  -0.27986  -0.26570
  Beta virt. eigenvalues --   -0.11283  -0.01173  -0.00420   0.00162   0.00894
  Beta virt. eigenvalues --    0.01850   0.02029   0.02167   0.03345   0.03495
  Beta virt. eigenvalues --    0.03916   0.04114   0.05131   0.05322   0.05626

 Mulliken atomic charges:
              1
     1  C   -0.685468
     2  H    0.139944
     3  H    0.142838
     4  H    0.152365
     5  C    0.475117
     6  H    0.195880
     7  C   -0.679301
     8  H    0.159534
     9  H    0.222016
    10  C   -0.223622
    11  H    0.194081
    12  H    0.418502
    13  C   -0.562303
    14  H    0.185265
    15  H    0.135039
    16  C    0.453913
    17  H    0.142764
    18  C   -0.631353
    19  H    0.138923
    20  H    0.149241
    21  H    0.128238
    22  C   -0.625023
    23  H    0.184071
    24  H    0.176548
    25  C   -0.637685
    26  H    0.141216
    27  H    0.152993
    28  H    0.151899
    29  O   -0.008903
    30  O   -0.186727
 Sum of Mulliken atomic charges =   0.00000

 Dipole moment (field-independent basis, Debye):
    X=              0.5683    Y=             -3.0323    Z=             -0.5677  Tot=              3.1369
 Quadrupole moment (field-independent basis, Debye-Ang):
   XX=            -65.9390   YY=            -78.0193   ZZ=            -72.1664
   XY=             -1.4852   XZ=              0.0630   YZ=             -0.3801

  Exact polarizability: 155.213   7.631 126.511   1.806  -1.222 102.968
 Approx polarizability: 177.517  12.739 187.292   7.702   1.210 163.638

 ******    1 imaginary frequencies (negative Signs) ******

                     1                      2                      3
                     A                      A                      A
 Frequencies -- -1722.2893                36.1683                51.9273
 Red. masses --     1.1109                 2.7285                 3.6955
 Frc consts  --     1.9414                 0.0021                 0.0059
 IR Inten    --   854.8822                 0.2955                 0.6756

                     4                      5                      6
                     A                      A                      A
 Frequencies --    82.6228               108.2453               143.7851
 Red. masses --     3.1143                 2.8148                 2.6375
 Frc consts  --     0.0125                 0.0194                 0.0321
 IR Inten    --     0.6311                 1.4747                 1.1204

                     7                      8                      9
                     A                      A                      A
 Frequencies --   206.7480               229.2358               233.3171
 Red. masses --     2.1056                 2.0990                 1.2653
 Frc consts  --     0.0530                 0.0650                 0.0406
 IR Inten    --     0.5514                 0.1282                 0.1844

                    10                     11                     12
                     A                      A                      A
 Frequencies --   258.1613               261.8126               288.3066
 Red. masses --     1.1001                 1.1325                 3.4903
 Frc consts  --     0.0432                 0.0457                 0.1709
 IR Inten    --     0.0752                 0.2446                 3.8731

                    13                     14                     15
                     A                      A                      A
 Frequencies --   326.8623               351.6510               372.7668
 Red. masses --     3.1105                 2.9185                 2.5080
 Frc consts  --     0.1958                 0.2126                 0.2053
 IR Inten    --     1.2485                 0.8134                 3.0322

                    16                     17                     18
                     A                      A                      A
 Frequencies --   405.9760               415.1262               445.1146
 Red. masses --     2.4868                 2.0496                 2.2257
 Frc consts  --     0.2415                 0.2081                 0.2598
 IR Inten    --     1.5966                 0.5520                 0.6263

                    19                     20                     21
                     A                      A                      A
 Frequencies --   495.2399               556.7698               591.2836
 Red. masses --     3.0121                 3.2032                 3.9102
 Frc consts  --     0.4353                 0.5850                 0.8055
 IR Inten    --     1.3179                 0.7028                 1.3614

                    22                     23                     24
                     A                      A                      A
 Frequencies --   786.0684               813.7945               841.4914
 Red. masses --     1.5532                 2.0598                 1.6211
 Frc consts  --     0.5654                 0.8037                 0.6763
 IR Inten    --     7.5560                 5.7720                 1.8659

                    25                     26                     27
                     A                      A                      A
 Frequencies --   850.9528               890.4872               929.1463
 Red. masses --     2.1837                 2.5868                 1.1994
 Frc consts  --     0.9316                 1.2085                 0.6101
 IR Inten    --     1.7788                 6.6244                 1.1005

                    28                     29                     30
                     A                      A                      A
 Frequencies --   939.8893               949.9766               960.1992
 Red. masses --     1.6846                 1.7836                 1.9625
 Frc consts  --     0.8768                 0.9483                 1.0661
 IR Inten    --     6.9723                 2.1917                 7.3367

                    31                     32                     33
                     A                      A                      A
 Frequencies --   967.6410               991.0919              1020.8147
 Red. masses --     1.4813                 1.4994                 4.9391
 Frc consts  --     0.8172                 0.8677                 3.0324
 IR Inten    --     0.0591                 0.6372                27.6541

                    34                     35                     36
                     A                      A                      A
 Frequencies --  1029.4929              1063.5003              1088.8533
 Red. masses --     3.0557                 1.7440                 2.1553
 Frc consts  --     1.9081                 1.1622                 1.5055
 IR Inten    --     9.2928                 2.2196                 9.1249

                    37                     38                     39
                     A                      A                      A
 Frequencies --  1111.5303              1139.6469              1149.3778
 Red. masses --     1.8965                 2.1385                 1.1676
 Frc consts  --     1.3805                 1.6364                 0.9088
 IR Inten    --     0.6309                 9.0463                21.2838

                    40                     41                     42
                     A                      A                      A
 Frequencies --  1169.7050              1182.7075              1190.8894
 Red. masses --     2.2734                 2.1255                 1.7909
 Frc consts  --     1.8326                 1.7517                 1.4965
 IR Inten    --     2.5194                 3.1899                 2.9896

                    43                     44                     45
                     A                      A                      A
 Frequencies --  1227.9053              1262.3924              1276.9174
 Red. masses --     1.4733                 1.1898                 1.2716
 Frc consts  --     1.3088                 1.1171                 1.2216
 IR Inten    --     2.4920                 0.5667                 2.2371

                    46                     47                     48
                     A                      A                      A
 Frequencies --  1298.5990              1319.9056              1338.6328
 Red. masses --     1.1551                 1.2828                 1.3001
 Frc consts  --     1.1477                 1.3167                 1.3726
 IR Inten    --     4.5722                 2.8051                 3.9657

                    49                     50                     51
                     A                      A                      A
 Frequencies --  1361.4239              1369.0826              1388.7827
 Red. masses --     1.3907                 1.3547                 1.3079
 Frc consts  --     1.5187                 1.4961                 1.4862
 IR Inten    --     0.7252                 2.0370                 3.0648

                    52                     53                     54
                     A                      A                      A
 Frequencies --  1394.4665              1398.4274              1403.3730
 Red. masses --     1.4972                 1.4510                 1.2515
 Frc consts  --     1.7154                 1.6719                 1.4522
 IR Inten    --     6.2489                 0.5445                 7.6261

                    55                     56                     57
                     A                      A                      A
 Frequencies --  1415.1845              1425.1607              1459.2456
 Red. masses --     1.2381                 1.2358                 1.0796
 Frc consts  --     1.4610                 1.4789                 1.3545
 IR Inten    --     5.1914                 4.5745                 1.5515

                    58                     59                     60
                     A                      A                      A
 Frequencies --  1468.3240              1480.3715              1486.1834
 Red. masses --     1.0783                 1.0849                 1.0461
 Frc consts  --     1.3697                 1.4009                 1.3613
 IR Inten    --     3.7814                 0.1992                 3.8199

                    61                     62                     63
                     A                      A                      A
 Frequencies --  1494.0170              1500.7857              1501.0661
 Red. masses --     1.0552                 1.0522                 1.0524
 Frc consts  --     1.3877                 1.3964                 1.3971
 IR Inten    --     6.8822                10.1325                13.6550

                    64                     65                     66
                     A                      A                      A
 Frequencies --  1502.1656              1507.3110              1513.6256
 Red. masses --     1.0459                 1.0609                 1.0469
 Frc consts  --     1.3905                 1.4202                 1.4131
 IR Inten    --     6.8219                 8.4019                 6.4395

                    67                     68                     69
                     A                      A                      A
 Frequencies --  2945.4139              2974.6373              2984.4556
 Red. masses --     1.0704                 1.0691                 1.0814
 Frc consts  --     5.4713                 5.5735                 5.6752
 IR Inten    --    24.9211                29.7631                11.3277

                    70                     71                     72
                     A                      A                      A
 Frequencies --  3009.2800              3013.9087              3014.8210
 Red. masses --     1.0846                 1.0377                 1.0502
 Frc consts  --     5.7871                 5.5538                 5.6239
 IR Inten    --    15.4422                36.0466                17.4163

                    73                     74                     75
                     A                      A                      A
 Frequencies --  3019.4347              3021.5154              3022.8686
 Red. masses --     1.0589                 1.0676                 1.0377
 Frc consts  --     5.6882                 5.7425                 5.5870
 IR Inten    --    47.5635                33.3625                20.1071

                    76                     77                     78
                     A                      A                      A
 Frequencies --  3038.2963              3054.0587              3070.6614
 Red. masses --     1.0869                 1.0880                 1.1054
 Frc consts  --     5.9114                 5.9791                 6.1412
 IR Inten    --     0.6511                31.5837                 8.2891

                    79                     80                     81
                     A                      A                      A
 Frequencies --  3073.4906              3078.9234              3079.9573
 Red. masses --     1.1011                 1.1015                 1.1017
 Frc consts  --     6.1285                 6.1524                 6.1577
 IR Inten    --    22.6644                53.1627                23.8837

                    82                     83                     84
                     A                      A                      A
 Frequencies --  3084.1607              3088.0976              3096.0917
 Red. masses --     1.1008                 1.1014                 1.0999
 Frc consts  --     6.1694                 6.1883                 6.2122
 IR Inten    --    70.5545                35.0566                36.9548

 - Thermochemistry -
 -------------------
 Temperature   298.150 Kelvin.  Pressure   1.00000 Atm.
 Atom     1 has atomic number  6 and mass  12.00000

 Molecular mass:   159.13850 amu.
 Principal axes and moments of inertia in atomic units:
                           1         2         3
     Eigenvalues --   926.008423533.420104134.66813
           X            0.99989  -0.01468  -0.00374
           Y            0.01460   0.99971  -0.01909
           Z            0.00402   0.01903   0.99981
 This molecule is an asymmetric top.
 Rotational symmetry number  1.
 Warning -- assumption of classical behavior for rotation
           may cause significant error
 Rotational temperatures (Kelvin)      0.09353     0.02451     0.02095
 Rotational constants (GHZ):           1.94895     0.51076     0.43649
    1 imaginary frequencies ignored.
 Zero-point vibrational energy     690196.2 (Joules/Mol)
                                  164.96086 (Kcal/Mol)
 Warning -- explicit consideration of  20 degrees of freedom as
           vibrations may cause significant error
 Vibrational temperatures:     52.04    74.71   118.88   155.74   206.87
          (Kelvin)            297.46   329.82   335.69   371.44   376.69
                              414.81   470.28   505.95   536.33   584.11
                              597.27   640.42   712.54   801.07   850.72
                             1130.98  1170.87  1210.72  1224.33  1281.21
                             1336.83  1352.29  1366.80  1381.51  1392.22
                             1425.96  1468.72  1481.21  1530.14  1566.62
                             1599.24  1639.70  1653.70  1682.94  1701.65
                             1713.42  1766.68  1816.30  1837.20  1868.39
                             1899.05  1925.99  1958.78  1969.80  1998.15
                             2006.32  2012.02  2019.14  2036.13  2050.49
                             2099.53  2112.59  2129.92  2138.28  2149.55
                             2159.29  2159.70  2161.28  2168.68  2177.77
                             4237.79  4279.83  4293.96  4329.68  4336.34
                             4337.65  4344.29  4347.28  4349.23  4371.43
                             4394.10  4417.99  4422.06  4429.88  4431.37
                             4437.41  4443.08  4454.58

 Zero-point correction=                           0.262882 (Hartree/Particle)
 Thermal correction to Energy=                    0.276069
 Thermal correction to Enthalpy=                  0.277013
 Thermal correction to Gibbs Free Energy=         0.222555
 Sum of electronic and zero-point Energies=           -504.576836
 Sum of electronic and thermal Energies=              -504.563648
 Sum of electronic and thermal Enthalpies=            -504.562704
 Sum of electronic and thermal Free Energies=         -504.617162

                     E (Thermal)             CV                S
                      KCal/Mol        Cal/Mol-Kelvin    Cal/Mol-Kelvin
 Total                  173.236             49.588            114.617
 Electronic               0.000              0.000              1.377
 Translational            0.889              2.981             41.103
 Rotational               0.889              2.981             30.982
 Vibrational            171.458             43.627             41.155
 Vibration     1          0.594              1.982              5.459
 Vibration     2          0.596              1.977              4.743
 Vibration     3          0.600              1.961              3.828
 Vibration     4          0.606              1.943              3.300
 Vibration     5          0.616              1.909              2.753
 Vibration     6          0.641              1.830              2.072
 Vibration     7          0.652              1.796              1.885
 Vibration     8          0.654              1.790              1.853
 Vibration     9          0.667              1.749              1.674
 Vibration    10          0.669              1.743              1.650
 Vibration    11          0.685              1.695              1.484
 Vibration    12          0.711              1.622              1.276
 Vibration    13          0.728              1.572              1.159
 Vibration    14          0.744              1.528              1.068
 Vibration    15          0.771              1.457              0.941
 Vibration    16          0.779              1.437              0.909
 Vibration    17          0.804              1.372              0.811
 Vibration    18          0.851              1.261              0.670
 Vibration    19          0.912              1.125              0.530
 Vibration    20          0.949              1.050              0.465

 Normal termination of Gaussian 09 at Fri Feb 14 00:35:44 2014.
