 Gaussian 09, Revision C.01,
 Gaussian 09:  EM64L-G09RevC.01 23-Sep-2011

 ----------------------------------------------
 #p opt=(calcfc,qst3) freq ub3lyp/6-311++g(d,p)
 ----------------------------------------------

 (Enter /usr/caen/gaussian-09revc/g09/l101.exe)
 -------------------------------------------------------------
 TS_1_C9H18_1 using B3LYP/6-311++g(d,p) to find TS | reactants
 -------------------------------------------------------------
 Charge =  0 Multiplicity = 2

 --------
 products
 --------
 Charge =  0 Multiplicity = 2

 -------------
 intermediates
 -------------
 Charge =  0 Multiplicity = 2

 SCF Done:  E(UB3LYP) =  -504.741836014     A.U. after   27 cycles
 SCF Done:  E(UB3LYP) =  -504.751364481     A.U. after   21 cycles
 SCF Done:  E(UB3LYP) =  -504.763356849     A.U. after   21 cycles
 SCF Done:  E(UB3LYP) =  -504.786858009     A.U. after   18 cycles
 SCF Done:  E(UB3LYP) =  -504.791677402     A.U. after   18 cycles
 SCF Done:  E(UB3LYP) =  -504.802016126     A.U. after   18 cycles
 SCF Done:  E(UB3LYP) =  -504.811189365     A.U. after   16 cycles
 SCF Done:  E(UB3LYP) =  -504.817689733     A.U. after   18 cycles
 SCF Done:  E(UB3LYP) =  -504.823119415     A.U. after   19 cycles
 SCF Done:  E(UB3LYP) =  -504.825248077     A.U. after   19 cycles
 SCF Done:  E(UB3LYP) =  -504.828707714     A.U. after   16 cycles
 SCF Done:  E(UB3LYP) =  -504.828718348     A.U. after   15 cycles
 SCF Done:  E(UB3LYP) =  -504.828724439     A.U. after   14 cycles
 SCF Done:  E(UB3LYP) =  -504.828730110     A.U. after   14 cycles
 SCF Done:  E(UB3LYP) =  -504.828728682     A.U. after   16 cycles
 SCF Done:  E(UB3LYP) =  -504.828742328     A.U. after   15 cycles
 SCF Done:  E(UB3LYP) =  -504.828739392     A.U. after   14 cycles
 SCF Done:  E(UB3LYP) =  -504.828745703     A.U. after   14 cycles
 SCF Done:  E(UB3LYP) =  -504.828746176     A.U. after   14 cycles
 Optimization completed.
    -- Stationary point found.
 Normal termination of Gaussian 09 at Mon Feb 24 22:38:59 2014.

 ----------------------------------------------------------------------
 #P Geom=AllCheck Guess=TCheck SCRF=Check GenChk UB3LYP/6-311++G(d,p) F
 req
 ----------------------------------------------------------------------

 Structure from the checkpoint file:  TS_1_C9H18_1.chk
 -------------------------------------------------------------
 TS_1_C9H18_1 using B3LYP/6-311++g(d,p) to find TS | reactants
 -------------------------------------------------------------
 Charge =  0 Multiplicity = 2

                         Standard orientation:
 ---------------------------------------------------------------------
 Center     Atomic      Atomic             Coordinates (Angstroms)
 Number     Number       Type             X           Y           Z
 ---------------------------------------------------------------------
      1          6           0        3.127304   -1.698379   -0.424206
      2          1           0        3.046367   -2.677293    0.059931
      3          1           0        3.016078   -1.855271   -1.500656
      4          1           0        4.133973   -1.314002   -0.243523
      5          6           0        2.058196   -0.741379    0.108838
      6          1           0        2.200843    0.302567   -0.663758
      7          6           0        0.618021   -1.191245   -0.190004
      8          1           0        0.468026   -2.179923    0.264257
      9          1           0        0.531663   -1.349758   -1.271867
     10          6           0       -0.503540   -0.249703    0.263389
     11          1           0       -0.504541   -0.167760    1.356851
     12          1           0       -0.310840    0.755894   -0.123809
     13          6           0       -1.886519   -0.733063   -0.193743
     14          1           0       -1.918594   -0.756346   -1.291605
     15          1           0       -2.021488   -1.771364    0.135133
     16          6           0       -3.076141    0.098765    0.321982
     17          1           0       -3.005825    0.132454    1.418250
     18          6           0       -4.404008   -0.581748   -0.039494
     19          1           0       -4.526781   -0.646028   -1.126395
     20          1           0       -5.256683   -0.022646    0.356863
     21          1           0       -4.454309   -1.598518    0.361578
     22          6           0        2.351465   -0.004754    1.255633
     23          1           0        1.583103    0.450723    1.865421
     24          1           0        3.356934    0.034137    1.655944
     25          6           0       -3.053036    1.543929   -0.196637
     26          1           0       -3.913749    2.106034    0.177509
     27          1           0       -3.095167    1.563835   -1.291612
     28          1           0       -2.152517    2.080267    0.111781
     29          8           0        2.705889    1.955507    0.239393
     30          8           0        2.473243    1.576801   -0.949998
 ---------------------------------------------------------------------

 SCF Done:  E(UB3LYP) =  -504.828746176     A.U. after    1 cycles

 The electronic state is 2-A.
 Alpha  occ. eigenvalues --  -19.22001 -19.21305 -10.20883 -10.19049 -10.18088
 Alpha  occ. eigenvalues --  -10.17648 -10.17526 -10.17198 -10.16806 -10.15878
 Alpha  occ. eigenvalues --  -10.15762  -1.21027  -0.84000  -0.81419  -0.80482
 Alpha  occ. eigenvalues --   -0.76149  -0.70222  -0.68596  -0.68445  -0.61324
 Alpha  occ. eigenvalues --   -0.56527  -0.56157  -0.52807  -0.50228  -0.48230
 Alpha  occ. eigenvalues --   -0.48142  -0.47425  -0.45619  -0.44794  -0.43277
 Alpha  occ. eigenvalues --   -0.42997  -0.41607  -0.38794  -0.38666  -0.38631
 Alpha  occ. eigenvalues --   -0.37561  -0.36253  -0.35586  -0.34512  -0.32670
 Alpha  occ. eigenvalues --   -0.32528  -0.31563  -0.29964  -0.27578  -0.26584
 Alpha virt. eigenvalues --   -0.05963  -0.00896  -0.00242   0.00255   0.00919
 Alpha virt. eigenvalues --    0.01554   0.01969   0.02644   0.03492   0.03656
 Alpha virt. eigenvalues --    0.03986   0.04341   0.05085   0.05509   0.06319

  Beta  occ. eigenvalues --  -19.20543 -19.19538 -10.20981 -10.19034 -10.18091
  Beta  occ. eigenvalues --  -10.17648 -10.17527 -10.17198 -10.16806 -10.15878
  Beta  occ. eigenvalues --  -10.15762  -1.17867  -0.84005  -0.81406  -0.76176
  Beta  occ. eigenvalues --   -0.76082  -0.70266  -0.68596  -0.68450  -0.61320
  Beta  occ. eigenvalues --   -0.56487  -0.56012  -0.51945  -0.48393  -0.47802
  Beta  occ. eigenvalues --   -0.46383  -0.45549  -0.44673  -0.43277  -0.42918
  Beta  occ. eigenvalues --   -0.41566  -0.40608  -0.38794  -0.38654  -0.38586
  Beta  occ. eigenvalues --   -0.37548  -0.36250  -0.35578  -0.34493  -0.32667
  Beta  occ. eigenvalues --   -0.32524  -0.31554  -0.29177  -0.25437
  Beta virt. eigenvalues --   -0.10379  -0.05698  -0.00897  -0.00239   0.00265
  Beta virt. eigenvalues --    0.00936   0.01570   0.01985   0.02673   0.03514
  Beta virt. eigenvalues --    0.03670   0.04003   0.04358   0.05113   0.05520

 Mulliken atomic charges:
              1
     1  C   -0.380674
     2  H    0.148707
     3  H    0.155919
     4  H    0.160184
     5  C    0.243583
     6  H    0.382289
     7  C   -0.584326
     8  H    0.143408
     9  H    0.171379
    10  C    0.112660
    11  H    0.105209
    12  H    0.084855
    13  C   -0.789559
    14  H    0.140045
    15  H    0.131879
    16  C    0.527869
    17  H    0.139182
    18  C   -0.634961
    19  H    0.136453
    20  H    0.151489
    21  H    0.129060
    22  C   -0.711944
    23  H    0.202125
    24  H    0.195754
    25  C   -0.641261
    26  H    0.142540
    27  H    0.143175
    28  H    0.147052
    29  O   -0.044751
    30  O   -0.107339
 Sum of Mulliken atomic charges =   0.00000

 Dipole moment (field-independent basis, Debye):
    X=             -0.7366    Y=             -2.5037    Z=              1.0096  Tot=              2.7983
 Quadrupole moment (field-independent basis, Debye-Ang):
   XX=            -73.7480   YY=            -77.7761   ZZ=            -71.1812
   XY=             -7.2696   XZ=              2.0342   YZ=              1.4037

  Exact polarizability: 136.461   1.828 130.387   1.130  -1.557 112.953
 Approx polarizability: 156.273   9.219 197.112   3.017  -9.889 197.992

 ******    1 imaginary frequencies (negative Signs) ******

                     1                      2                      3
                     A                      A                      A
 Frequencies --  -889.5599                21.9977                44.0261
 Red. masses --     1.6069                 2.7547                 4.8670
 Frc consts  --     0.7492                 0.0008                 0.0056
 IR Inten    --    81.5988                 0.3559                 1.2235

                     4                      5                      6
                     A                      A                      A
 Frequencies --    74.0068                97.1690               115.0213
 Red. masses --     3.4555                 2.3225                 2.2463
 Frc consts  --     0.0112                 0.0129                 0.0175
 IR Inten    --     0.3917                 0.5123                 0.4614

                     7                      8                      9
                     A                      A                      A
 Frequencies --   141.5318               186.9889               196.9798
 Red. masses --     2.7704                 4.8523                 1.0417
 Frc consts  --     0.0327                 0.1000                 0.0238
 IR Inten    --     0.5215                 0.1569                 0.0883

                    10                     11                     12
                     A                      A                      A
 Frequencies --   216.3138               222.8636               244.1875
 Red. masses --     2.3691                 1.1286                 1.8393
 Frc consts  --     0.0653                 0.0330                 0.0646
 IR Inten    --     1.0672                 0.4011                 0.1787

                    13                     14                     15
                     A                      A                      A
 Frequencies --   259.4808               288.8506               359.7091
 Red. masses --     1.5800                 3.4861                 4.2417
 Frc consts  --     0.0627                 0.1714                 0.3234
 IR Inten    --     0.4318                 4.8507                21.7496

                    16                     17                     18
                     A                      A                      A
 Frequencies --   371.8765               387.5312               435.8037
 Red. masses --     2.5666                 2.1811                 2.0376
 Frc consts  --     0.2091                 0.1930                 0.2280
 IR Inten    --     1.0777                 0.0548                 0.1023

                    19                     20                     21
                     A                      A                      A
 Frequencies --   450.0963               509.2087               547.4835
 Red. masses --     2.3103                 2.6116                 2.4912
 Frc consts  --     0.2758                 0.3990                 0.4399
 IR Inten    --     0.1793                 0.4334                14.1166

                    22                     23                     24
                     A                      A                      A
 Frequencies --   686.4869               736.1787               750.7623
 Red. masses --     5.3107                 1.0917                 1.1242
 Frc consts  --     1.4746                 0.3486                 0.3733
 IR Inten    --     3.0265                 1.1346                 1.3062

                    25                     26                     27
                     A                      A                      A
 Frequencies --   812.7900               845.0385               885.3095
 Red. masses --     2.5701                 1.4341                 2.1676
 Frc consts  --     1.0004                 0.6034                 1.0010
 IR Inten    --     1.8946                 1.5697                10.6979

                    28                     29                     30
                     A                      A                      A
 Frequencies --   926.9825               931.7566               957.2695
 Red. masses --     1.1918                 1.7989                 1.8125
 Frc consts  --     0.6034                 0.9201                 0.9786
 IR Inten    --     1.3304                 3.6660                 0.1427

                    31                     32                     33
                     A                      A                      A
 Frequencies --   964.0585               985.6142               999.2331
 Red. masses --     1.4925                 1.2574                 1.6721
 Frc consts  --     0.8173                 0.7197                 0.9837
 IR Inten    --     0.0393                 0.8307                 3.6178

                    34                     35                     36
                     A                      A                      A
 Frequencies --  1007.2801              1052.1494              1060.0984
 Red. masses --     1.4970                 2.2757                 2.0641
 Frc consts  --     0.8949                 1.4843                 1.3667
 IR Inten    --     4.0639                 0.0444                 0.8244

                    37                     38                     39
                     A                      A                      A
 Frequencies --  1065.5691              1142.3831              1151.3542
 Red. masses --     1.5051                 1.9625                 1.7628
 Frc consts  --     1.0069                 1.5090                 1.3768
 IR Inten    --    16.0771                 0.4769                15.3086

                    40                     41                     42
                     A                      A                      A
 Frequencies --  1189.3444              1199.3383              1227.7937
 Red. masses --     1.7595                 1.5504                 1.5085
 Frc consts  --     1.4664                 1.3139                 1.3398
 IR Inten    --     7.4237                19.7667                 7.3824

                    43                     44                     45
                     A                      A                      A
 Frequencies --  1249.5802              1285.0913              1305.6579
 Red. masses --     1.3146                 1.4336                 1.2996
 Frc consts  --     1.2094                 1.3949                 1.3053
 IR Inten    --     5.6477                 4.5637                20.3006

                    46                     47                     48
                     A                      A                      A
 Frequencies --  1321.1786              1337.0518              1339.6973
 Red. masses --     5.2008                 1.3876                 1.1123
 Frc consts  --     5.3487                 1.4615                 1.1762
 IR Inten    --   176.9088                 0.7944                 0.5783

                    49                     50                     51
                     A                      A                      A
 Frequencies --  1367.1861              1375.3970              1395.5532
 Red. masses --     1.3649                 1.5178                 1.4976
 Frc consts  --     1.5032                 1.6917                 1.7185
 IR Inten    --     6.1662                 7.3551                 0.7778

                    52                     53                     54
                     A                      A                      A
 Frequencies --  1400.6614              1413.6397              1419.9041
 Red. masses --     1.2628                 1.2751                 1.2498
 Frc consts  --     1.4597                 1.5013                 1.4846
 IR Inten    --    14.1416                 2.6958                 3.9350

                    55                     56                     57
                     A                      A                      A
 Frequencies --  1422.5702              1480.3207              1488.8307
 Red. masses --     1.3677                 1.0721                 1.0503
 Frc consts  --     1.6308                 1.3842                 1.3716
 IR Inten    --    11.3156                 0.4664                 9.3695

                    58                     59                     60
                     A                      A                      A
 Frequencies --  1489.8593              1490.8490              1495.4277
 Red. masses --     1.0710                 1.0512                 1.0583
 Frc consts  --     1.4006                 1.3766                 1.3945
 IR Inten    --     0.2581                 2.0227                 2.0730

                    61                     62                     63
                     A                      A                      A
 Frequencies --  1502.3928              1504.5036              1507.2152
 Red. masses --     1.0604                 1.0605                 1.0907
 Frc consts  --     1.4102                 1.4143                 1.4599
 IR Inten    --     8.0275                 6.3143                 0.9797

                    64                     65                     66
                     A                      A                      A
 Frequencies --  1512.7527              1555.1172              1583.9092
 Red. masses --     1.0543                 1.1070                 2.1430
 Frc consts  --     1.4215                 1.5774                 3.1676
 IR Inten    --    17.0611                30.7209                21.2318

                    67                     68                     69
                     A                      A                      A
 Frequencies --  2981.8406              2991.2095              2996.3591
 Red. masses --     1.0799                 1.0620                 1.0611
 Frc consts  --     5.6570                 5.5983                 5.6127
 IR Inten    --     6.8215                 6.0539                37.1697

                    70                     71                     72
                     A                      A                      A
 Frequencies --  3011.0748              3011.9299              3017.3730
 Red. masses --     1.0572                 1.0524                 1.0383
 Frc consts  --     5.6474                 5.6251                 5.5699
 IR Inten    --     6.0350                51.8830                29.9517

                    73                     74                     75
                     A                      A                      A
 Frequencies --  3019.9712              3023.5070              3026.3952
 Red. masses --     1.0376                 1.0996                 1.0859
 Frc consts  --     5.5755                 5.9225                 5.8599
 IR Inten    --    33.4063                13.4144                37.0245

                    76                     77                     78
                     A                      A                      A
 Frequencies --  3064.2146              3070.6421              3076.4219
 Red. masses --     1.1022                 1.1002                 1.0997
 Frc consts  --     6.0975                 6.1121                 6.1321
 IR Inten    --    33.2521                14.2258                 2.8940

                    79                     80                     81
                     A                      A                      A
 Frequencies --  3076.6070              3081.3116              3091.8978
 Red. masses --     1.0999                 1.1012                 1.0997
 Frc consts  --     6.1338                 6.1600                 6.1942
 IR Inten    --    88.5527                54.1721                38.6580

                    82                     83                     84
                     A                      A                      A
 Frequencies --  3097.0677              3158.6354              3246.5715
 Red. masses --     1.1019                 1.0582                 1.1167
 Frc consts  --     6.2273                 6.2206                 6.9351
 IR Inten    --    24.5542                 9.1018                 5.9477

 - Thermochemistry -
 -------------------
 Temperature   298.150 Kelvin.  Pressure   1.00000 Atm.
 Atom     1 has atomic number  6 and mass  12.00000

 Molecular mass:   159.13850 amu.
 Principal axes and moments of inertia in atomic units:
                           1         2         3
     Eigenvalues --  1056.897104240.949364872.69941
           X            0.99970  -0.02427   0.00241
           Y            0.02421   0.99945   0.02262
           Z           -0.00296  -0.02256   0.99974
 This molecule is an asymmetric top.
 Rotational symmetry number  1.
 Warning -- assumption of classical behavior for rotation
           may cause significant error
 Rotational temperatures (Kelvin)      0.08195     0.02042     0.01778
 Rotational constants (GHZ):           1.70758     0.42555     0.37038
    1 imaginary frequencies ignored.
 Zero-point vibrational energy     688063.9 (Joules/Mol)
                                  164.45121 (Kcal/Mol)
 Warning -- explicit consideration of  20 degrees of freedom as
           vibrations may cause significant error
 Vibrational temperatures:     31.65    63.34   106.48   139.80   165.49
          (Kelvin)            203.63   269.03   283.41   311.23   320.65
                              351.33   373.33   415.59   517.54   535.05
                              557.57   627.02   647.59   732.64   787.71
                              987.70  1059.20  1080.18  1169.42  1215.82
                             1273.76  1333.72  1340.59  1377.30  1387.06
                             1418.08  1437.67  1449.25  1513.81  1525.24
                             1533.11  1643.63  1656.54  1711.20  1725.58
                             1766.52  1797.86  1848.96  1878.55  1900.88
                             1923.72  1927.52  1967.07  1978.89  2007.89
                             2015.24  2033.91  2042.92  2046.76  2129.85
                             2142.09  2143.57  2145.00  2151.58  2161.61
                             2164.64  2168.54  2176.51  2237.46  2278.89
                             4290.20  4303.68  4311.09  4332.26  4333.49
                             4341.32  4345.06  4350.15  4354.30  4408.72
                             4417.96  4426.28  4426.55  4433.31  4448.55
                             4455.98  4544.57  4671.09

 Zero-point correction=                           0.262070 (Hartree/Particle)
 Thermal correction to Energy=                    0.276256
 Thermal correction to Enthalpy=                  0.277201
 Thermal correction to Gibbs Free Energy=         0.219601
 Sum of electronic and zero-point Energies=           -504.566676
 Sum of electronic and thermal Energies=              -504.552490
 Sum of electronic and thermal Enthalpies=            -504.551546
 Sum of electronic and thermal Free Energies=         -504.609145

                     E (Thermal)             CV                S
                      KCal/Mol        Cal/Mol-Kelvin    Cal/Mol-Kelvin
 Total                  173.353             51.390            121.228
 Electronic               0.000              0.000              1.377
 Translational            0.889              2.981             41.103
 Rotational               0.889              2.981             31.458
 Vibrational            171.576             45.428             47.289
 Vibration     1          0.593              1.985              6.445
 Vibration     2          0.595              1.980              5.069
 Vibration     3          0.599              1.966              4.044
 Vibration     4          0.603              1.951              3.510
 Vibration     5          0.608              1.937              3.182
 Vibration     6          0.615              1.912              2.783
 Vibration     7          0.632              1.858              2.257
 Vibration     8          0.636              1.844              2.161
 Vibration     9          0.645              1.816              1.990
 Vibration    10          0.649              1.806              1.936
 Vibration    11          0.660              1.772              1.772
 Vibration    12          0.668              1.747              1.665
 Vibration    13          0.685              1.694              1.481
 Vibration    14          0.734              1.555              1.123
 Vibration    15          0.744              1.530              1.072
 Vibration    16          0.756              1.497              1.010
 Vibration    17          0.796              1.392              0.840
 Vibration    18          0.809              1.361              0.795
 Vibration    19          0.864              1.230              0.635
 Vibration    20          0.903              1.145              0.549

 Normal termination of Gaussian 09 at Mon Feb 24 23:16:03 2014.
