 Gaussian 09, Revision D.01,
 Gaussian 09:  ES64L-G09RevD.01 24-Apr-2013

 ----------------------------------------------------------------------
 #p B3LYP/6-31G(d) opt=tight int=ultrafine freq EmpiricalDispersion=GD3
 BJ
 ----------------------------------------------------------------------

 ---------------------------------------------
 using B3LYP/6-31G(d) to do opt and freq calc.
 ---------------------------------------------
 Symbolic Z-matrix:
 Charge =  0 Multiplicity = 1

 SCF Done:  E(RB3LYP) =  -79.8358271333     A.U. after    8 cycles
 SCF Done:  E(RB3LYP) =  -79.8358276169     A.U. after    5 cycles
 SCF Done:  E(RB3LYP) =  -79.8358276363     A.U. after    5 cycles
 Optimization completed.
    -- Stationary point found.
 Normal termination of Gaussian 09 at Wed Mar 30 17:48:37 2016.

 --------------------------------------------------------------------
 #P Geom=AllCheck Guess=TCheck SCRF=Check GenChk RB3LYP/6-31G(d) Freq
 --------------------------------------------------------------------

 Structure from the checkpoint file:  "/vol-th/home/you/scratch/Gau-10943.chk"
 ---------------------------------------------
 using B3LYP/6-31G(d) to do opt and freq calc.
 ---------------------------------------------
 Charge =  0 Multiplicity = 1

                         Standard orientation:
 ---------------------------------------------------------------------
 Center     Atomic      Atomic             Coordinates (Angstroms)
 Number     Number       Type             X           Y           Z
 ---------------------------------------------------------------------
      1          6           0        0.000000    0.000000    0.764978
      2          1           0        0.510489    0.884195    1.163577
      3          1           0        0.510491   -0.884194    1.163577
      4          1           0       -1.020980   -0.000001    1.163577
      5          6           0        0.000000    0.000000   -0.764978
      6          1           0       -0.510491   -0.884194   -1.163577
      7          1           0       -0.510489    0.884195   -1.163577
      8          1           0        1.020980   -0.000001   -1.163577
 ---------------------------------------------------------------------

 SCF Done:  E(RB3LYP) =  -79.8358276363     A.U. after    1 cycles

 The electronic state is 1-A1.
 Alpha  occ. eigenvalues --  -10.17227 -10.17205  -0.74757  -0.61189  -0.43022
 Alpha  occ. eigenvalues --   -0.43022  -0.36280  -0.34006  -0.34006
 Alpha virt. eigenvalues --    0.10476   0.15619   0.16374   0.16374   0.19022
 Alpha virt. eigenvalues --    0.19022   0.24268   0.51290   0.54391   0.54391
 Alpha virt. eigenvalues --    0.63657   0.63657   0.66884   0.88299   0.88299

 Mulliken charges:
               1
     1  C   -0.432802
     2  H    0.144267
     3  H    0.144267
     4  H    0.144267
     5  C   -0.432802
     6  H    0.144267
     7  H    0.144267
     8  H    0.144267
 Sum of Mulliken charges =   0.00000

 Dipole moment (field-independent basis, Debye):
    X=              0.0000    Y=              0.0000    Z=              0.0000  Tot=              0.0000
 Quadrupole moment (field-independent basis, Debye-Ang):
   XX=            -14.7118   YY=            -14.7118   ZZ=            -15.2367
   XY=              0.0000   XZ=              0.0000   YZ=              0.0000

  Exact polarizability:  22.411   0.000  22.411   0.000   0.000  23.914
 Approx polarizability:  28.746   0.000  28.746   0.000   0.000  27.481

                      1                      2                      3
                     A1                      E                      E
 Frequencies --    313.8723               832.7622               832.7623
 Red. masses --      1.0078                 1.0576                 1.0576
 Frc consts  --      0.0585                 0.4321                 0.4321
 IR Inten    --      0.0000                 4.6494                 4.6494

                      4                      5                      6
                     A1                      E                      E
 Frequencies --   1011.8028              1236.1151              1236.1152
 Red. masses --      3.2446                 1.4650                 1.4650
 Frc consts  --      1.9570                 1.3189                 1.3189
 IR Inten    --      0.0000                 0.0000                 0.0000

                      7                      8                      9
                     A2                     A1                      E
 Frequencies --   1433.1161              1454.5335              1532.1278
 Red. masses --      1.1980                 1.2579                 1.0197
 Frc consts  --      1.4497                 1.5680                 1.4103
 IR Inten    --      0.2777                 0.0000                 0.0000

                     10                     11                     12
                      E                      E                      E
 Frequencies --   1532.1278              1537.7208              1537.7210
 Red. masses --      1.0197                 1.0619                 1.0619
 Frc consts  --      1.4103                 1.4795                 1.4795
 IR Inten    --      0.0000                 7.4668                 7.4669

                     13                     14                     15
                     A1                     A2                      E
 Frequencies --   3047.9296              3048.8703              3099.5501
 Red. masses --      1.0367                 1.0343                 1.1020
 Frc consts  --      5.6741                 5.6646                 6.2378
 IR Inten    --      0.0000                59.0174                 0.0000

                     16                     17                     18
                      E                      E                      E
 Frequencies --   3099.5502              3123.9750              3123.9751
 Red. masses --      1.1020                 1.1031                 1.1031
 Frc consts  --      6.2378                 6.3426                 6.3426
 IR Inten    --      0.0000                73.7669                73.7656

 - Thermochemistry -
 -------------------
 Temperature   298.150 Kelvin.  Pressure   1.00000 Atm.
 Atom     1 has atomic number  6 and mass  12.00000

 Molecular mass:    30.04695 amu.
 Principal axes and moments of inertia in atomic units:
                           1         2         3
     Eigenvalues --    22.50964  90.64541  90.64541
           X            0.00000   0.09588   0.99539
           Y            0.00000   0.99539  -0.09588
           Z            1.00000   0.00000   0.00000
 This molecule is a prolate symmetric top.
 Rotational symmetry number  6.
 Rotational temperatures (Kelvin)      3.84785     0.95552     0.95552
 Rotational constants (GHZ):          80.17637    19.90990    19.90990
 Zero-point vibrational energy     197590.9 (Joules/Mol)
                                   47.22537 (Kcal/Mol)
 Warning -- explicit consideration of   1 degrees of freedom as
           vibrations may cause significant error
 Vibrational temperatures:    451.59  1198.16  1198.16  1455.76  1778.49
          (Kelvin)           1778.49  2061.93  2092.75  2204.39  2204.39
                             2212.43  2212.43  4385.29  4386.64  4459.56
                             4459.56  4494.70  4494.70

 Zero-point correction=                           0.075258 (Hartree/Particle)
 Thermal correction to Energy=                    0.078727
 Thermal correction to Enthalpy=                  0.079671
 Thermal correction to Gibbs Free Energy=         0.053841
 Sum of electronic and zero-point Energies=            -79.760569
 Sum of electronic and thermal Energies=               -79.757101
 Sum of electronic and thermal Enthalpies=             -79.756157
 Sum of electronic and thermal Free Energies=          -79.781987

                     E (Thermal)             CV                S
                      KCal/Mol        Cal/Mol-Kelvin    Cal/Mol-Kelvin
 Total                   49.402              9.983             54.364
 Electronic               0.000              0.000              0.000
 Translational            0.889              2.981             36.134
 Rotational               0.889              2.981             16.293
 Vibrational             47.624              4.021              1.937
 Vibration     1          0.702              1.647              1.342

 Optimization completed.
    -- Stationary point found.
 Normal termination of Gaussian 09 at Wed Mar 30 17:48:41 2016.
