 Gaussian 09, Revision D.01,
 Gaussian 09:  ES64L-G09RevD.01 24-Apr-2013

 ----------------------------------------------------------------------
 #p B3LYP/6-31G(d) opt=tight int=ultrafine freq EmpiricalDispersion=GD3
 BJ
 ----------------------------------------------------------------------

 ---------------------------------------------
 using B3LYP/6-31G(d) to do opt and freq calc.
 ---------------------------------------------
 Symbolic Z-matrix:
 Charge =  0 Multiplicity = 1

 SCF Done:  E(RB3LYP) =  -119.154141071     A.U. after   11 cycles
 SCF Done:  E(RB3LYP) =  -119.154141093     A.U. after    5 cycles
 SCF Done:  E(RB3LYP) =  -119.154141094     A.U. after    4 cycles
 Optimization completed.
    -- Stationary point found.
 Normal termination of Gaussian 09 at Wed Mar 30 17:48:47 2016.

 --------------------------------------------------------------------
 #P Geom=AllCheck Guess=TCheck SCRF=Check GenChk RB3LYP/6-31G(d) Freq
 --------------------------------------------------------------------

 Structure from the checkpoint file:  "/vol-th/home/you/scratch/Gau-11630.chk"
 ---------------------------------------------
 using B3LYP/6-31G(d) to do opt and freq calc.
 ---------------------------------------------
 Charge =  0 Multiplicity = 1

                         Standard orientation:
 ---------------------------------------------------------------------
 Center     Atomic      Atomic             Coordinates (Angstroms)
 Number     Number       Type             X           Y           Z
 ---------------------------------------------------------------------
      1          6           0        0.000000    1.274316   -0.260259
      2          1           0       -0.884519    1.315864   -0.907816
      3          1           0        0.884519    1.315864   -0.907816
      4          1           0        0.000000    2.174866    0.364243
      5          6           0        0.000000    0.000000    0.588237
      6          1           0        0.877837    0.000000    1.248232
      7          1           0       -0.877837    0.000000    1.248232
      8          6           0        0.000000   -1.274316   -0.260259
      9          1           0        0.000000   -2.174866    0.364243
     10          1           0       -0.884519   -1.315864   -0.907816
     11          1           0        0.884519   -1.315864   -0.907816
 ---------------------------------------------------------------------

 SCF Done:  E(RB3LYP) =  -119.154141094     A.U. after    1 cycles

 The electronic state is 1-A1.
 Alpha  occ. eigenvalues --  -10.17801 -10.16982 -10.16981  -0.77446  -0.67554
 Alpha  occ. eigenvalues --   -0.58023  -0.45192  -0.43142  -0.39330  -0.37652
 Alpha  occ. eigenvalues --   -0.33303  -0.33271  -0.32453
 Alpha virt. eigenvalues --    0.09607   0.14781   0.15001   0.15028   0.17052
 Alpha virt. eigenvalues --    0.19386   0.19481   0.19721   0.22833   0.26671
 Alpha virt. eigenvalues --    0.51262   0.51828   0.54846   0.55958   0.58354

 Mulliken charges:
               1
     1  C   -0.434548
     2  H    0.140531
     3  H    0.140531
     4  H    0.141015
     5  C   -0.241155
     6  H    0.133050
     7  H    0.133050
     8  C   -0.434548
     9  H    0.141015
    10  H    0.140531
    11  H    0.140531
 Sum of Mulliken charges =   0.00000

 Dipole moment (field-independent basis, Debye):
    X=              0.0000    Y=              0.0000    Z=              0.0549  Tot=              0.0549
 Quadrupole moment (field-independent basis, Debye-Ang):
   XX=            -21.2307   YY=            -21.8973   ZZ=            -21.5818
   XY=              0.0000   XZ=              0.0000   YZ=              0.0000

  Exact polarizability:  31.755   0.000  36.038   0.000   0.000  32.483
 Approx polarizability:  43.164   0.000  41.943   0.000   0.000  42.397

                      1                      2                      3
                     A2                     B1                     A1
 Frequencies --    224.6497               276.2341               368.9383
 Red. masses --      1.0279                 1.1362                 2.0626
 Frc consts  --      0.0306                 0.0511                 0.1654
 IR Inten    --      0.0000                 0.0012                 0.1292

                      4                      5                      6
                     B1                     A1                     A2
 Frequencies --    758.6105               883.4194               920.1260
 Red. masses --      1.0790                 2.5611                 1.0993
 Frc consts  --      0.3659                 1.1777                 0.5484
 IR Inten    --      3.5107                 0.7674                 0.0000

                      7                      8                      9
                     B2                     B2                     A1
 Frequencies --    941.4023              1069.3162              1191.4779
 Red. masses --      1.1981                 2.4034                 1.7755
 Frc consts  --      0.6256                 1.6192                 1.4851
 IR Inten    --      2.1647                 0.4022                 1.1987

                     10                     11                     12
                     B1                     A2                     B2
 Frequencies --   1229.9019              1331.2906              1386.3398
 Red. masses --      1.6617                 1.1241                 1.4089
 Frc consts  --      1.4810                 1.1738                 1.5954
 IR Inten    --      0.2292                 0.0000                 5.0170

                     13                     14                     15
                     B2                     A1                     A1
 Frequencies --   1433.5468              1449.6827              1520.1093
 Red. masses --      1.2899                 1.2343                 1.0484
 Frc consts  --      1.5618                 1.5283                 1.4273
 IR Inten    --      3.1438                 1.6198                 0.0238

                     16                     17                     18
                     A2                     B2                     B1
 Frequencies --   1520.4388              1528.2452              1538.0811
 Red. masses --      1.0399                 1.0517                 1.0411
 Frc consts  --      1.4163                 1.4472                 1.4511
 IR Inten    --      0.0000                 1.6050                10.6879

                     19                     20                     21
                     A1                     A1                     B2
 Frequencies --   1544.3823              3035.0249              3038.5699
 Red. masses --      1.0787                 1.0606                 1.0353
 Frc consts  --      1.5158                 5.7560                 5.6318
 IR Inten    --      3.1081                26.0429                35.3103

                     22                     23                     24
                     A1                     B1                     A2
 Frequencies --   3042.7155              3060.3066              3099.8284
 Red. masses --      1.0358                 1.1026                 1.1026
 Frc consts  --      5.6501                 6.0841                 6.2424
 IR Inten    --     24.6641                 6.6802                 0.0000

                     25                     26                     27
                     B2                     B1                     A1
 Frequencies --   3110.3347              3110.9041              3112.7470
 Red. masses --      1.1024                 1.1031                 1.1012
 Frc consts  --      6.2838                 6.2900                 6.2866
 IR Inten    --     32.2348               106.8065                56.5840

 - Thermochemistry -
 -------------------
 Temperature   298.150 Kelvin.  Pressure   1.00000 Atm.
 Atom     1 has atomic number  6 and mass  12.00000

 Molecular mass:    44.06260 amu.
 Principal axes and moments of inertia in atomic units:
                           1         2         3
     Eigenvalues --    61.46429 214.95922 242.80380
           X            0.00000   0.00000   1.00000
           Y            1.00000   0.00000   0.00000
           Z            0.00000   1.00000   0.00000
 This molecule is an asymmetric top.
 Rotational symmetry number  2.
 Rotational temperatures (Kelvin)      1.40917     0.40293     0.35672
 Rotational constants (GHZ):          29.36243     8.39574     7.43292
 Zero-point vibrational energy     273505.9 (Joules/Mol)
                                   65.36949 (Kcal/Mol)
 Warning -- explicit consideration of   3 degrees of freedom as
           vibrations may cause significant error
 Vibrational temperatures:    323.22   397.44   530.82  1091.47  1271.04
          (Kelvin)           1323.85  1354.47  1538.51  1714.27  1769.55
                             1915.43  1994.63  2062.55  2085.77  2187.10
                             2187.57  2198.80  2212.95  2222.02  4366.72
                             4371.82  4377.78  4403.09  4459.96  4475.07
                             4475.89  4478.54

 Zero-point correction=                           0.104173 (Hartree/Particle)
 Thermal correction to Energy=                    0.108677
 Thermal correction to Enthalpy=                  0.109621
 Thermal correction to Gibbs Free Energy=         0.079183
 Sum of electronic and zero-point Energies=           -119.049968
 Sum of electronic and thermal Energies=              -119.045464
 Sum of electronic and thermal Enthalpies=            -119.044520
 Sum of electronic and thermal Free Energies=         -119.074958

                     E (Thermal)             CV                S
                      KCal/Mol        Cal/Mol-Kelvin    Cal/Mol-Kelvin
 Total                   68.196             14.652             64.063
 Electronic               0.000              0.000              0.000
 Translational            0.889              2.981             37.275
 Rotational               0.889              2.981             21.311
 Vibrational             66.419              8.690              5.478
 Vibration     1          0.649              1.804              1.921
 Vibration     2          0.678              1.717              1.557
 Vibration     3          0.741              1.536              1.084

 Optimization completed.
    -- Stationary point found.
 Normal termination of Gaussian 09 at Wed Mar 30 17:48:56 2016.
