 Gaussian 09, Revision D.01,
 Gaussian 09:  ES64L-G09RevD.01 24-Apr-2013

 ----------------------------------------------------------------------
 #p B3LYP/6-31G(d) opt=tight int=ultrafine freq EmpiricalDispersion=GD3
 BJ
 ----------------------------------------------------------------------

 ---------------------------------------------
 using B3LYP/6-31G(d) to do opt and freq calc.
 ---------------------------------------------
 Symbolic Z-matrix:
 Charge =  0 Multiplicity = 1

 SCF Done:  E(RB3LYP) =  -158.472599419     A.U. after   11 cycles
 SCF Done:  E(RB3LYP) =  -158.472599502     A.U. after    5 cycles
 SCF Done:  E(RB3LYP) =  -158.472599506     A.U. after    5 cycles
 Optimization completed.
    -- Stationary point found.
 Normal termination of Gaussian 09 at Wed Mar 30 17:49:03 2016.

 --------------------------------------------------------------------
 #P Geom=AllCheck Guess=TCheck SCRF=Check GenChk RB3LYP/6-31G(d) Freq
 --------------------------------------------------------------------

 Structure from the checkpoint file:  "/vol-th/home/you/scratch/Gau-12327.chk"
 ---------------------------------------------
 using B3LYP/6-31G(d) to do opt and freq calc.
 ---------------------------------------------
 Charge =  0 Multiplicity = 1

                         Standard orientation:
 ---------------------------------------------------------------------
 Center     Atomic      Atomic             Coordinates (Angstroms)
 Number     Number       Type             X           Y           Z
 ---------------------------------------------------------------------
      1          6           0        0.704833    1.830734    0.000000
      2          1           0        0.189618    2.224894    0.884530
      3          1           0        0.189618    2.224894   -0.884530
      4          1           0        1.723848    2.233647    0.000000
      5          6           0        0.704833    0.300258    0.000000
      6          1           0        1.253624   -0.068535   -0.878145
      7          1           0        1.253624   -0.068535    0.878145
      8          6           0       -0.704833   -0.300258    0.000000
      9          1           0       -1.253624    0.068535   -0.878145
     10          1           0       -1.253624    0.068535    0.878145
     11          6           0       -0.704833   -1.830734    0.000000
     12          1           0       -0.189618   -2.224894    0.884530
     13          1           0       -1.723848   -2.233647    0.000000
     14          1           0       -0.189618   -2.224894   -0.884530
 ---------------------------------------------------------------------

 SCF Done:  E(RB3LYP) =  -158.472599506     A.U. after    1 cycles

 The electronic state is 1-AG.
 Alpha  occ. eigenvalues --  -10.17565 -10.17543 -10.16979 -10.16979  -0.78781
 Alpha  occ. eigenvalues --   -0.71822  -0.62557  -0.57158  -0.46327  -0.42099
 Alpha  occ. eigenvalues --   -0.41364  -0.40632  -0.36432  -0.34676  -0.32881
 Alpha  occ. eigenvalues --   -0.31931  -0.31744
 Alpha virt. eigenvalues --    0.09486   0.12092   0.13541   0.14557   0.17108
 Alpha virt. eigenvalues --    0.18425   0.18513   0.18773   0.19875   0.19925
 Alpha virt. eigenvalues --    0.24806   0.25720   0.26300   0.49821   0.50460

 Mulliken charges:
               1
     1  C   -0.441037
     2  H    0.140786
     3  H    0.140786
     4  H    0.141027
     5  C   -0.239859
     6  H    0.129149
     7  H    0.129149
     8  C   -0.239859
     9  H    0.129149
    10  H    0.129149
    11  C   -0.441037
    12  H    0.140786
    13  H    0.141027
    14  H    0.140786
 Sum of Mulliken charges =   0.00000

 Dipole moment (field-independent basis, Debye):
    X=              0.0000    Y=              0.0000    Z=              0.0000  Tot=              0.0000
 Quadrupole moment (field-independent basis, Debye-Ang):
   XX=            -28.1457   YY=            -28.8961   ZZ=            -27.7404
   XY=             -0.0556   XZ=              0.0000   YZ=              0.0000

  Exact polarizability:  43.226   3.138  48.088   0.000   0.000  40.785
 Approx polarizability:  56.722   0.044  55.590   0.000   0.000  57.460

                      1                      2                      3
                     AU                     AU                     BU
 Frequencies --    118.9660               225.5357               259.4323
 Red. masses --      1.9152                 1.0613                 2.2509
 Frc consts  --      0.0160                 0.0318                 0.0893
 IR Inten    --      0.0061                 0.0022                 0.0559

                      4                      5                      6
                     BG                     AG                     AU
 Frequencies --    264.5315               426.6257               743.9839
 Red. masses --      1.1222                 2.7335                 1.0704
 Frc consts  --      0.0463                 0.2931                 0.3491
 IR Inten    --      0.0000                 0.0000                 3.5882

                      7                      8                      9
                     BG                     AG                     AU
 Frequencies --    819.6079               850.5149               972.3795
 Red. masses --      1.1247                 1.9767                 1.1180
 Frc consts  --      0.4452                 0.8425                 0.6228
 IR Inten    --      0.0000                 0.0000                 1.1666

                     10                     11                     12
                     BU                     BU                     AG
 Frequencies --    989.7909              1030.4838              1075.3859
 Red. masses --      1.3253                 2.7761                 2.3557
 Frc consts  --      0.7650                 1.7369                 1.6051
 IR Inten    --      5.6750                 0.3731                 0.0000

                     13                     14                     15
                     AG                     BG                     AU
 Frequencies --   1182.7793              1225.8512              1305.3908
 Red. masses --      2.0281                 1.7481                 1.2470
 Frc consts  --      1.6717                 1.5478                 1.2520
 IR Inten    --      0.0000                 0.0000                 0.1036

                     16                     17                     18
                     BU                     BG                     AG
 Frequencies --   1339.6524              1347.0227              1418.4775
 Red. masses --      1.3496                 1.0700                 1.5552
 Frc consts  --      1.4271                 1.1439                 1.8437
 IR Inten    --      5.9455                 0.0000                 0.0000

                     19                     20                     21
                     AG                     BU                     AG
 Frequencies --   1439.6130              1442.1740              1516.5319
 Red. masses --      1.2505                 1.2475                 1.0640
 Frc consts  --      1.5270                 1.5287                 1.4418
 IR Inten    --      0.0000                 2.8221                 0.0000

                     22                     23                     24
                     BU                     BG                     AU
 Frequencies --   1521.3903              1529.3386              1530.3906
 Red. masses --      1.0529                 1.0447                 1.0372
 Frc consts  --      1.4359                 1.4396                 1.4312
 IR Inten    --      1.5823                 0.0000                11.6689

                     25                     26                     27
                     AG                     BU                     AG
 Frequencies --   1536.0859              1542.8437              3020.9948
 Red. masses --      1.0643                 1.0854                 1.0585
 Frc consts  --      1.4796                 1.5223                 5.6919
 IR Inten    --      0.0000                 4.5275                 0.0000

                     28                     29                     30
                     BU                     BU                     AG
 Frequencies --   3028.5793              3041.5431              3042.1475
 Red. masses --      1.0595                 1.0363                 1.0362
 Frc consts  --      5.7258                 5.6484                 5.6503
 IR Inten    --     49.3369                79.6463                 0.0000

                     31                     32                     33
                     BG                     AU                     BG
 Frequencies --   3043.1110              3065.2688              3104.0747
 Red. masses --      1.1012                 1.1048                 1.1030
 Frc consts  --      6.0082                 6.1159                 6.2616
 IR Inten    --      0.0000                26.8946                 0.0000

                     34                     35                     36
                     AU                     AG                     BU
 Frequencies --   3108.1983              3111.6225              3112.3948
 Red. masses --      1.1027                 1.1020                 1.1017
 Frc consts  --      6.2765                 6.2865                 6.2878
 IR Inten    --    123.3823                 0.0000                85.8403

 - Thermochemistry -
 -------------------
 Temperature   298.150 Kelvin.  Pressure   1.00000 Atm.
 Atom     1 has atomic number  6 and mass  12.00000

 Molecular mass:    58.07825 amu.
 Principal axes and moments of inertia in atomic units:
                           1         2         3
     Eigenvalues --    77.17784 499.45759 531.90602
           X            0.42108   0.90702   0.00000
           Y            0.90702  -0.42108   0.00000
           Z            0.00000   0.00000   1.00000
 This molecule is an asymmetric top.
 Rotational symmetry number  2.
 Rotational temperatures (Kelvin)      1.12226     0.17342     0.16284
 Rotational constants (GHZ):          23.38419     3.61340     3.39297
 Zero-point vibrational energy     348907.1 (Joules/Mol)
                                   83.39080 (Kcal/Mol)
 Warning -- explicit consideration of   5 degrees of freedom as
           vibrations may cause significant error
 Vibrational temperatures:    171.17   324.50   373.26   380.60   613.82
          (Kelvin)           1070.43  1179.23  1223.70  1399.04  1424.09
                             1482.63  1547.24  1701.75  1763.72  1878.16
                             1927.46  1938.06  2040.87  2071.28  2074.96
                             2181.95  2188.94  2200.37  2201.89  2210.08
                             2219.81  4346.53  4357.44  4376.10  4376.97
                             4378.35  4410.23  4466.07  4472.00  4476.93
                             4478.04

 Zero-point correction=                           0.132892 (Hartree/Particle)
 Thermal correction to Energy=                    0.138651
 Thermal correction to Enthalpy=                  0.139595
 Thermal correction to Gibbs Free Energy=         0.105534
 Sum of electronic and zero-point Energies=           -158.339708
 Sum of electronic and thermal Energies=              -158.333948
 Sum of electronic and thermal Enthalpies=            -158.333004
 Sum of electronic and thermal Free Energies=         -158.367065

                     E (Thermal)             CV                S
                      KCal/Mol        Cal/Mol-Kelvin    Cal/Mol-Kelvin
 Total                   87.005             19.473             71.687
 Electronic               0.000              0.000              0.000
 Translational            0.889              2.981             38.098
 Rotational               0.889              2.981             23.154
 Vibrational             85.227             13.511             10.435
 Vibration     1          0.609              1.934              3.117
 Vibration     2          0.650              1.802              1.914
 Vibration     3          0.668              1.747              1.666
 Vibration     4          0.671              1.738              1.632
 Vibration     5          0.788              1.412              0.870

 Optimization completed.
    -- Stationary point found.
 Normal termination of Gaussian 09 at Wed Mar 30 17:49:14 2016.
