 Gaussian 09, Revision D.01,
 Gaussian 09:  ES64L-G09RevD.01 24-Apr-2013

 ----------------------------------------------------------------------
 #p B3LYP/6-31G(d) opt=tight int=ultrafine freq EmpiricalDispersion=GD3
 BJ
 ----------------------------------------------------------------------

 ---------------------------------------------
 using B3LYP/6-31G(d) to do opt and freq calc.
 ---------------------------------------------
 Symbolic Z-matrix:
 Charge =  0 Multiplicity = 1

 SCF Done:  E(RB3LYP) =  -158.474266238     A.U. after   11 cycles
 SCF Done:  E(RB3LYP) =  -158.474265467     A.U. after    6 cycles
 SCF Done:  E(RB3LYP) =  -158.474267397     A.U. after    5 cycles
 SCF Done:  E(RB3LYP) =  -158.474266420     A.U. after    4 cycles
 SCF Done:  E(RB3LYP) =  -158.474266123     A.U. after    4 cycles
 SCF Done:  E(RB3LYP) =  -158.474266655     A.U. after    4 cycles
 SCF Done:  E(RB3LYP) =  -158.474266407     A.U. after    4 cycles
 SCF Done:  E(RB3LYP) =  -158.474267402     A.U. after    4 cycles
 SCF Done:  E(RB3LYP) =  -158.474266896     A.U. after    4 cycles
 Optimization completed.
    -- Stationary point found.
 Normal termination of Gaussian 09 at Wed Mar 30 17:49:47 2016.

 --------------------------------------------------------------------
 #P Geom=AllCheck Guess=TCheck SCRF=Check GenChk RB3LYP/6-31G(d) Freq
 --------------------------------------------------------------------

 Structure from the checkpoint file:  "/vol-th/home/you/scratch/Gau-13023.chk"
 ---------------------------------------------
 using B3LYP/6-31G(d) to do opt and freq calc.
 ---------------------------------------------
 Charge =  0 Multiplicity = 1

                         Standard orientation:
 ---------------------------------------------------------------------
 Center     Atomic      Atomic             Coordinates (Angstroms)
 Number     Number       Type             X           Y           Z
 ---------------------------------------------------------------------
      1          6           0        0.422094    1.396681    0.096096
      2          1           0        0.437249    1.446996    1.192702
      3          1           0       -0.271588    2.166039   -0.262926
      4          1           0        1.425822    1.652980   -0.262848
      5          6           0       -0.000004   -0.000003   -0.375750
      6          1           0       -0.000003   -0.000012   -1.475941
      7          6           0       -1.420623   -0.332800    0.096087
      8          1           0       -2.144446    0.408301   -0.262865
      9          1           0       -1.740038   -1.318231   -0.262937
     10          1           0       -1.471815   -0.344834    1.192696
     11          6           0        0.998528   -1.063879    0.096097
     12          1           0        0.718727   -2.061281   -0.262930
     13          1           0        2.011658   -0.847701   -0.262840
     14          1           0        1.034464   -1.102252    1.192704
 ---------------------------------------------------------------------

 SCF Done:  E(RB3LYP) =  -158.474266896     A.U. after    1 cycles

 The electronic state is 1-A.
 Alpha  occ. eigenvalues --  -10.18439 -10.16829 -10.16829 -10.16827  -0.79564
 Alpha  occ. eigenvalues --   -0.67642  -0.67642  -0.55474  -0.45739  -0.42522
 Alpha  occ. eigenvalues --   -0.42522  -0.37863  -0.37863  -0.35895  -0.32232
 Alpha  occ. eigenvalues --   -0.32232  -0.31795
 Alpha virt. eigenvalues --    0.08605   0.13662   0.15446   0.15447   0.15902
 Alpha virt. eigenvalues --    0.15902   0.17605   0.19718   0.19718   0.22690
 Alpha virt. eigenvalues --    0.22847   0.26021   0.26021   0.51394   0.51395

 Mulliken charges:
               1
     1  C   -0.434805
     2  H    0.137153
     3  H    0.138644
     4  H    0.138644
     5  C   -0.061754
     6  H    0.122861
     7  C   -0.434829
     8  H    0.138650
     9  H    0.138650
    10  H    0.137157
    11  C   -0.434820
    12  H    0.138647
    13  H    0.138647
    14  H    0.137155
 Sum of Mulliken charges =   0.00000

 Dipole moment (field-independent basis, Debye):
    X=              0.0000    Y=              0.0000    Z=             -0.0849  Tot=              0.0849
 Quadrupole moment (field-independent basis, Debye-Ang):
   XX=            -28.4716   YY=            -28.4715   ZZ=            -27.9648
   XY=              0.0000   XZ=              0.0000   YZ=              0.0000

  Exact polarizability:  45.342   0.000  45.342   0.000   0.000  40.725
 Approx polarizability:  56.823   0.000  56.823   0.000   0.000  57.570

                      1                      2                      3
                      A                      A                      A
 Frequencies --    216.2109               261.2555               261.9873
 Red. masses --      1.0125                 1.0615                 1.0617
 Frc consts  --      0.0279                 0.0427                 0.0429
 IR Inten    --      0.0000                 0.0175                 0.0175

                      4                      5                      6
                      A                      A                      A
 Frequencies --    365.6245               365.7497               433.0534
 Red. masses --      2.0709                 2.0708                 1.9299
 Frc consts  --      0.1631                 0.1632                 0.2132
 IR Inten    --      0.0036                 0.0037                 0.2599

                      7                      8                      9
                      A                      A                      A
 Frequencies --    806.3404               935.1423               935.5045
 Red. masses --      2.8077                 1.2208                 1.2201
 Frc consts  --      1.0756                 0.6290                 0.6291
 IR Inten    --      0.5636                 1.2981                 1.2986

                     10                     11                     12
                      A                      A                      A
 Frequencies --    967.4751               984.1646               984.2716
 Red. masses --      1.2003                 1.7598                 1.7606
 Frc consts  --      0.6620                 1.0043                 1.0049
 IR Inten    --      0.0000                 0.0506                 0.0515

                     13                     14                     15
                      A                      A                      A
 Frequencies --   1206.7416              1206.9046              1226.5555
 Red. masses --      1.7115                 1.7121                 1.9147
 Frc consts  --      1.4684                 1.4694                 1.6972
 IR Inten    --      2.1999                 2.1987                 0.2871

                     16                     17                     18
                      A                      A                      A
 Frequencies --   1377.6154              1377.6607              1429.1776
 Red. masses --      1.3993                 1.3999                 1.2684
 Frc consts  --      1.5647                 1.5654                 1.5264
 IR Inten    --      4.5269                 4.5340                 4.6474

                     19                     20                     21
                      A                      A                      A
 Frequencies --   1429.2979              1456.9790              1512.9902
 Red. masses --      1.2681                 1.2317                 1.0494
 Frc consts  --      1.5263                 1.5404                 1.4153
 IR Inten    --      4.6462                 2.3686                 0.0000

                     22                     23                     24
                      A                      A                      A
 Frequencies --   1519.0393              1519.0883              1537.7213
 Red. masses --      1.0415                 1.0415                 1.0587
 Frc consts  --      1.4160                 1.4160                 1.4749
 IR Inten    --      0.4077                 0.4082                 2.7355

                     25                     26                     27
                      A                      A                      A
 Frequencies --   1537.7456              1544.5614              3014.8380
 Red. masses --      1.0587                 1.0444                 1.0836
 Frc consts  --      1.4750                 1.4681                 5.8031
 IR Inten    --      2.7290                13.7882                18.0018

                     28                     29                     30
                      A                      A                      A
 Frequencies --   3034.1362              3034.1611              3041.9876
 Red. masses --      1.0354                 1.0353                 1.0365
 Frc consts  --      5.6158                 5.6158                 5.6512
 IR Inten    --     34.0867                34.1100                13.9922

                     31                     32                     33
                      A                      A                      A
 Frequencies --   3097.2673              3097.2867              3106.2844
 Red. masses --      1.1015                 1.1015                 1.1035
 Frc consts  --      6.2255                 6.2256                 6.2732
 IR Inten    --      6.3947                 6.3863                 0.0102

                     34                     35                     36
                      A                      A                      A
 Frequencies --   3107.1022              3110.6263              3110.6585
 Red. masses --      1.1003                 1.1021                 1.1021
 Frc consts  --      6.2588                 6.2831                 6.2832
 IR Inten    --    107.6313                62.1340                62.1379

 - Thermochemistry -
 -------------------
 Temperature   298.150 Kelvin.  Pressure   1.00000 Atm.
 Atom     1 has atomic number  6 and mass  12.00000

 Molecular mass:    58.07825 amu.
 Principal axes and moments of inertia in atomic units:
                           1         2         3
     Eigenvalues --   232.54230 232.54684 401.26442
           X            0.99994  -0.01079   0.00000
           Y            0.01079   0.99994   0.00000
           Z            0.00000   0.00000   1.00000
 This molecule is an asymmetric top.
 Rotational symmetry number  1.
 Rotational temperatures (Kelvin)      0.37246     0.37246     0.21585
 Rotational constants (GHZ):           7.76092     7.76076     4.49764
 Zero-point vibrational energy     347833.4 (Joules/Mol)
                                   83.13418 (Kcal/Mol)
 Warning -- explicit consideration of   6 degrees of freedom as
           vibrations may cause significant error
 Vibrational temperatures:    311.08   375.89   376.94   526.05   526.23
          (Kelvin)            623.07  1160.14  1345.46  1345.98  1391.98
                             1415.99  1416.15  1736.23  1736.46  1764.74
                             1982.08  1982.14  2056.27  2056.44  2096.27
                             2176.85  2185.56  2185.63  2212.44  2212.47
                             2222.28  4337.67  4365.44  4365.48  4376.74
                             4456.27  4456.30  4469.24  4470.42  4475.49
                             4475.54

 Zero-point correction=                           0.132483 (Hartree/Particle)
 Thermal correction to Energy=                    0.138159
 Thermal correction to Enthalpy=                  0.139104
 Thermal correction to Gibbs Free Energy=         0.104875
 Sum of electronic and zero-point Energies=           -158.341784
 Sum of electronic and thermal Energies=              -158.336108
 Sum of electronic and thermal Enthalpies=            -158.335163
 Sum of electronic and thermal Free Energies=         -158.369392

                     E (Thermal)             CV                S
                      KCal/Mol        Cal/Mol-Kelvin    Cal/Mol-Kelvin
 Total                   86.696             20.004             72.039
 Electronic               0.000              0.000              0.000
 Translational            0.889              2.981             38.098
 Rotational               0.889              2.981             24.588
 Vibrational             84.919             14.042              9.353
 Vibration     1          0.645              1.816              1.991
 Vibration     2          0.669              1.744              1.653
 Vibration     3          0.669              1.742              1.648
 Vibration     4          0.739              1.543              1.098
 Vibration     5          0.739              1.543              1.098
 Vibration     6          0.794              1.398              0.849

 Normal termination of Gaussian 09 at Wed Mar 30 17:50:14 2016.
