 Gaussian 09, Revision A.01,
 Gaussian 09:  EM64L-G09RevA.01  8-May-2009

 -----------------------------------------------
 #p ub3lyp/6-31g(d) opt=modredundant freq scf=qc
 -----------------------------------------------

 ---------------------------------------------------
 C3H7O2_62_b3631gd using cbs-qb3 to calculate energy
 ---------------------------------------------------
 Symbolic Z-matrix:
 Charge =  0 Multiplicity = 2

 SCF Done:  E(UB3LYP) =  -268.798635315     a.u. after   23 cycles
 SCF Done:  E(UB3LYP) =  -268.798760051     a.u. after    4 cycles
 SCF Done:  E(UB3LYP) =  -268.798779210     a.u. after    3 cycles
 SCF Done:  E(UB3LYP) =  -268.798781919     a.u. after    5 cycles
 SCF Done:  E(UB3LYP) =  -268.798784350     a.u. after    3 cycles
 SCF Done:  E(UB3LYP) =  -268.798784961     a.u. after    2 cycles
 SCF Done:  E(UB3LYP) =  -268.798785381     a.u. after    2 cycles
 SCF Done:  E(UB3LYP) =  -268.798785577     a.u. after    2 cycles
 SCF Done:  E(UB3LYP) =  -268.798785819     a.u. after    2 cycles
 Optimization completed.
    -- Stationary point found.
 Normal termination of Gaussian 09 at Wed Apr  1 01:19:47 2015.

 --------------------------------------------------------------------
 #P Geom=AllCheck Guess=TCheck SCRF=Check GenChk UB3LYP/6-31G(d) Freq
 --------------------------------------------------------------------

 C3H7O2_62_b3631gd using cbs-qb3 to calculate energy
 ---------------------------------------------------
 Redundant internal coordinates taken from checkpoint file:
 C3H7O2_62_b3631gd_226.chk
 Charge =  0 Multiplicity = 2

                         Standard orientation:
 ---------------------------------------------------------------------
 Center     Atomic      Atomic             Coordinates (Angstroms)
 Number     Number       Type             X           Y           Z
 ---------------------------------------------------------------------
      1          6           0       -1.786722   -0.950616    0.167960
      2          1           0       -0.955664   -1.628379   -0.051209
      3          1           0       -2.683133   -1.336531   -0.328816
      4          1           0       -1.965165   -0.975232    1.249573
      5          6           0       -1.465079    0.472162   -0.304006
      6          1           0       -1.325016    0.490855   -1.394348
      7          1           0       -2.336564    1.127197   -0.118147
      8          6           0       -0.270387    1.070789    0.352237
      9          1           0        0.128238    2.013856   -0.009949
     10          1           0       -0.018301    0.803694    1.374760
     11          8           0        1.413897   -0.167583   -0.510855
     12          8           0        2.372195   -0.338601    0.258479
 ---------------------------------------------------------------------

 SCF Done:  E(UB3LYP) =  -268.798785819     a.u. after    1 cycles

 The electronic state is 2-A.
 Alpha  occ. eigenvalues --  -19.26987 -19.24290 -10.21348 -10.20239 -10.18247
 Alpha  occ. eigenvalues --   -1.22757  -0.80079  -0.78335  -0.67636  -0.58846
 Alpha  occ. eigenvalues --   -0.50388  -0.49731  -0.49066  -0.46090  -0.44650
 Alpha  occ. eigenvalues --   -0.41762  -0.36313  -0.36036  -0.35346  -0.26573
 Alpha  occ. eigenvalues --   -0.25655
 Alpha virt. eigenvalues --   -0.04821   0.09492   0.13574   0.13931   0.14821
 Alpha virt. eigenvalues --    0.16335   0.18021   0.19093   0.21676   0.23255
 Alpha virt. eigenvalues --    0.26982   0.49509   0.50471   0.53792   0.55882

  Beta  occ. eigenvalues --  -19.24533 -19.21856 -10.22391 -10.20180 -10.18257
  Beta  occ. eigenvalues --   -1.17810  -0.79925  -0.72210  -0.68641  -0.59662
  Beta  occ. eigenvalues --   -0.47508  -0.46434  -0.44796  -0.43008  -0.41279
  Beta  occ. eigenvalues --   -0.40418  -0.36546  -0.36442  -0.35521  -0.20583
  Beta virt. eigenvalues --   -0.07869  -0.07372   0.09345   0.12862   0.13718
  Beta virt. eigenvalues --    0.14623   0.16310   0.17847   0.18907   0.22538
  Beta virt. eigenvalues --    0.25323   0.26629   0.49335   0.50385   0.53747

 Mulliken atomic charges:
              1
     1  C   -0.446768
     2  H    0.166947
     3  H    0.148053
     4  H    0.146774
     5  C   -0.266606
     6  H    0.162034
     7  H    0.155598
     8  C   -0.235075
     9  H    0.166338
    10  H    0.169133
    11  O   -0.071435
    12  O   -0.094994
 Sum of Mulliken atomic charges =   0.00000

 Dipole moment (field-independent basis, Debye):
    X=             -2.1866    Y=              0.9450    Z=              0.1815  Tot=              2.3889
 Quadrupole moment (field-independent basis, Debye-Ang):
   XX=            -33.3427   YY=            -29.3984   ZZ=            -30.1639
   XY=              0.5111   XZ=              0.0694   YZ=             -0.0059

  Exact polarizability:  77.549 -13.677  43.298   0.316   0.938  37.229
 Approx polarizability: 116.237 -31.748  62.105   1.773   2.621  54.683

 ******    1 imaginary frequencies (negative Signs) ******

                     1                      2                      3
                     A                      A                      A
 Frequencies --  -275.1180                28.7552                90.2382
 Red. masses --     7.5924                 5.8304                 1.8676
 Frc consts  --     0.3386                 0.0028                 0.0090
 IR Inten    --    63.2087                 0.1996                 0.1007

                     4                      5                      6
                     A                      A                      A
 Frequencies --   117.9310               243.7914               296.1038
 Red. masses --     4.5020                 1.2974                 3.0097
 Frc consts  --     0.0369                 0.0454                 0.1555
 IR Inten    --     0.9482                 0.2763                10.2686

                     7                      8                      9
                     A                      A                      A
 Frequencies --   389.2459               522.8618               724.0545
 Red. masses --     2.2484                 1.1322                 1.1212
 Frc consts  --     0.2007                 0.1824                 0.3463
 IR Inten    --     1.6084                 2.5953                12.7120

                    10                     11                     12
                     A                      A                      A
 Frequencies --   815.5289               891.2608               937.3555
 Red. masses --     1.1924                 1.9981                 1.2851
 Frc consts  --     0.4673                 0.9352                 0.6653
 IR Inten    --     5.1196                 2.7157                 2.8500

                    13                     14                     15
                     A                      A                      A
 Frequencies --  1073.3325              1097.8979              1192.1886
 Red. masses --     1.4680                 2.2030                 1.8049
 Frc consts  --     0.9964                 1.5646                 1.5114
 IR Inten    --     6.1725                 9.1845                 0.0720

                    16                     17                     18
                     A                      A                      A
 Frequencies --  1285.6039              1381.0263              1438.6576
 Red. masses --     1.1901                 1.5859                 1.5054
 Frc consts  --     1.1589                 1.7821                 1.8358
 IR Inten    --     1.0057                74.6186                63.8913

                    19                     20                     21
                     A                      A                      A
 Frequencies --  1446.2823              1487.9427              1496.8475
 Red. masses --     4.1863                 1.0762                 1.1677
 Frc consts  --     5.1593                 1.4038                 1.5415
 IR Inten    --   263.0080                 6.4161                 0.3550

                    22                     23                     24
                     A                      A                      A
 Frequencies --  1528.2928              1537.3971              2960.0600
 Red. masses --     1.0449                 1.0565                 1.0733
 Frc consts  --     1.4379                 1.4713                 5.5409
 IR Inten    --     4.9605                 5.0152                25.2902

                    25                     26                     27
                     A                      A                      A
 Frequencies --  3042.4180              3054.6463              3119.1566
 Red. masses --     1.0843                 1.0370                 1.1016
 Frc consts  --     5.9134                 5.7009                 6.3144
 IR Inten    --    11.5377                27.4890                32.7239

                    28                     29                     30
                     A                      A                      A
 Frequencies --  3134.1200              3164.8951              3263.4161
 Red. masses --     1.1029                 1.0525                 1.1184
 Frc consts  --     6.3831                 6.2115                 7.0179
 IR Inten    --    20.2323                13.4061                10.3884

 - Thermochemistry -
 -------------------
 Temperature   298.150 Kelvin.  Pressure   1.00000 Atm.
 Atom     1 has atomic number  6 and mass  12.00000

 Molecular mass:    75.04460 amu.
 Principal axes and moments of inertia in atomic units:
                           1         2         3
     Eigenvalues --   196.02325 782.10838 880.07922
           X            0.99971   0.02395   0.00221
           Y           -0.02391   0.99960  -0.01496
           Z           -0.00256   0.01491   0.99989
 This molecule is an asymmetric top.
 Rotational symmetry number  1.
 Rotational temperatures (Kelvin)      0.44185     0.11074     0.09842
 Rotational constants (GHZ):           9.20677     2.30753     2.05066
    1 imaginary frequencies ignored.
 Zero-point vibrational energy     249788.1 (Joules/Mol)
                                   59.70079 (Kcal/Mol)
 Warning -- explicit consideration of   7 degrees of freedom as
           vibrations may cause significant error
 Vibrational temperatures:     41.37   129.83   169.68   350.76   426.03
          (Kelvin)            560.04   752.28  1041.75  1173.36  1282.32
                             1348.64  1544.28  1579.63  1715.29  1849.69
                             1986.99  2069.90  2080.88  2140.81  2153.63
                             2198.87  2211.97  4258.86  4377.36  4394.95
                             4487.77  4509.29  4553.57  4695.32

 Zero-point correction=                           0.095139 (Hartree/Particle)
 Thermal correction to Energy=                    0.102156
 Thermal correction to Enthalpy=                  0.103100
 Thermal correction to Gibbs Free Energy=         0.062617
 Sum of electronic and zero-point Energies=           -268.703647
 Sum of electronic and thermal Energies=              -268.696630
 Sum of electronic and thermal Enthalpies=            -268.695686
 Sum of electronic and thermal Free Energies=         -268.736169

                     E (Thermal)             CV                S
                      KCal/Mol        Cal/Mol-Kelvin    Cal/Mol-Kelvin
 Total                   64.104             21.890             85.203
 Electronic               0.000              0.000              1.377
 Translational            0.889              2.981             38.862
 Rotational               0.889              2.981             26.403
 Vibrational             62.326             15.928             18.560
 Vibration     1          0.593              1.984              5.914
 Vibration     2          0.602              1.956              3.655
 Vibration     3          0.608              1.934              3.134
 Vibration     4          0.659              1.773              1.775
 Vibration     5          0.690              1.681              1.439
 Vibration     6          0.757              1.493              1.003
 Vibration     7          0.878              1.199              0.603

 Normal termination of Gaussian 09 at Wed Apr  1 01:20:05 2015.
