 Gaussian 09, Revision A.01,
 Gaussian 09:  EM64L-G09RevA.01  8-May-2009

 ----------------------------------------
 #p ub3lyp/6-31g(d) opt=modredundant freq
 ----------------------------------------

 ---------------------------------------------------
 C3H7O2_62_b3631gd using cbs-qb3 to calculate energy
 ---------------------------------------------------
 Symbolic Z-matrix:
 Charge =  0 Multiplicity = 2

 SCF Done:  E(UB3LYP) =  -268.793122913     A.U. after   21 cycles
 SCF Done:  E(UB3LYP) =  -268.793123877     A.U. after    8 cycles
 Optimization completed.
    -- Stationary point found.
 Normal termination of Gaussian 09 at Wed Apr  1 00:25:31 2015.

 --------------------------------------------------------------------
 #P Geom=AllCheck Guess=TCheck SCRF=Check GenChk UB3LYP/6-31G(d) Freq
 --------------------------------------------------------------------

 C3H7O2_62_b3631gd using cbs-qb3 to calculate energy
 ---------------------------------------------------
 Redundant internal coordinates taken from checkpoint file:
 C3H7O2_62_b3631gd_326.chk
 Charge =  0 Multiplicity = 2

                         Standard orientation:
 ---------------------------------------------------------------------
 Center     Atomic      Atomic             Coordinates (Angstroms)
 Number     Number       Type             X           Y           Z
 ---------------------------------------------------------------------
      1          6           0       -1.652895   -1.168300    0.173434
      2          1           0       -0.639984   -1.517399   -0.054456
      3          1           0       -2.365646   -1.854985   -0.296661
      4          1           0       -1.791944   -1.233084    1.259434
      5          6           0       -1.857775    0.270805   -0.321543
      6          1           0       -1.745717    0.309682   -1.414393
      7          1           0       -2.908862    0.562753   -0.132744
      8          6           0       -0.938059    1.257224    0.314652
      9          1           0       -0.709321    2.202845   -0.167003
     10          1           0       -0.624265    1.132901    1.347512
     11          8           0        1.932075   -0.035693   -0.539407
     12          8           0        2.752690   -0.184443    0.346788
 ---------------------------------------------------------------------

 SCF Done:  E(UB3LYP) =  -268.793123877     A.U. after    1 cycles

 The electronic state is 2-A.
 Alpha  occ. eigenvalues --  -19.30410 -19.30089 -10.18867 -10.17639 -10.17436
 Alpha  occ. eigenvalues --   -1.29018  -0.82897  -0.77211  -0.65681  -0.56794
 Alpha  occ. eigenvalues --   -0.54955  -0.54803  -0.53769  -0.44889  -0.43218
 Alpha  occ. eigenvalues --   -0.40077  -0.35246  -0.34601  -0.33852  -0.29960
 Alpha  occ. eigenvalues --   -0.29844
 Alpha virt. eigenvalues --   -0.03913   0.10508   0.14679   0.15032   0.15708
 Alpha virt. eigenvalues --    0.17323   0.18743   0.20326   0.20739   0.24684
 Alpha virt. eigenvalues --    0.28389   0.51334   0.52146   0.54076   0.57810

  Beta  occ. eigenvalues --  -19.27501 -19.27202 -10.18988 -10.18780 -10.17469
  Beta  occ. eigenvalues --   -1.23293  -0.78135  -0.74153  -0.67380  -0.58184
  Beta  occ. eigenvalues --   -0.49895  -0.45462  -0.44872  -0.44777  -0.43817
  Beta  occ. eigenvalues --   -0.40609  -0.35877  -0.35156  -0.34159  -0.19841
  Beta virt. eigenvalues --   -0.10560  -0.10514   0.10317   0.13777   0.14493
  Beta virt. eigenvalues --    0.15481   0.17296   0.18547   0.20104   0.24207
  Beta virt. eigenvalues --    0.24716   0.27769   0.50919   0.51371   0.52270

 Mulliken atomic charges:
              1
     1  C   -0.442229
     2  H    0.151640
     3  H    0.142269
     4  H    0.143904
     5  C   -0.259029
     6  H    0.145502
     7  H    0.146756
     8  C   -0.297928
     9  H    0.143415
    10  H    0.142689
    11  O   -0.003463
    12  O   -0.013526
 Sum of Mulliken atomic charges =   0.00000

 Dipole moment (field-independent basis, Debye):
    X=             -0.5783    Y=              0.0651    Z=             -0.0559  Tot=              0.5847
 Quadrupole moment (field-independent basis, Debye-Ang):
   XX=            -30.9203   YY=            -30.4690   ZZ=            -30.2753
   XY=              0.2206   XZ=              0.0617   YZ=             -0.1340

  Exact polarizability:  62.693  -3.935  40.219   4.283  -0.543  38.541
 Approx polarizability:  74.587  -5.867  48.661  10.003  -1.543  56.239

 ******    1 imaginary frequencies (negative Signs) ******

                     1                      2                      3
                     A                      A                      A
 Frequencies --   -39.1794                28.6236                36.7643
 Red. masses --     5.1586                 5.5794                 1.9531
 Frc consts  --     0.0047                 0.0027                 0.0016
 IR Inten    --     3.0843                 0.0154                 0.1280

                     4                      5                      6
                     A                      A                      A
 Frequencies --    48.3448                84.7695               160.3578
 Red. masses --     4.7608                 6.0430                 1.0458
 Frc consts  --     0.0066                 0.0256                 0.0158
 IR Inten    --     0.0461                 0.8908                 0.3609

                     7                      8                      9
                     A                      A                      A
 Frequencies --   255.9567               370.8965               500.6721
 Red. masses --     1.1030                 1.9466                 1.2840
 Frc consts  --     0.0426                 0.1578                 0.1896
 IR Inten    --     0.0222                 2.3125                46.0230

                    10                     11                     12
                     A                      A                      A
 Frequencies --   762.6006               890.6254               930.0922
 Red. masses --     1.1794                 1.9961                 1.2945
 Frc consts  --     0.4041                 0.9329                 0.6598
 IR Inten    --     1.7473                 0.6537                 1.9348

                    13                     14                     15
                     A                      A                      A
 Frequencies --  1064.7578              1091.7188              1188.5549
 Red. masses --     1.4223                 2.3530                 1.7914
 Frc consts  --     0.9500                 1.6523                 1.4910
 IR Inten    --     0.0852                 2.4576                 0.5751

                    16                     17                     18
                     A                      A                      A
 Frequencies --  1284.4084              1379.3822              1437.2431
 Red. masses --     1.1916                 1.4518                 1.2451
 Frc consts  --     1.1583                 1.6276                 1.5153
 IR Inten    --     0.8027                 6.1849                 1.4769

                    19                     20                     21
                     A                      A                      A
 Frequencies --  1489.8886              1498.8977              1527.7027
 Red. masses --     1.1715                 1.0749                 1.0413
 Frc consts  --     1.5322                 1.4229                 1.4319
 IR Inten    --     0.6415                 1.3224                 5.7409

                    22                     23                     24
                     A                      A                      A
 Frequencies --  1536.5230              1628.0953              2937.9733
 Red. masses --     1.0573                15.8708                 1.0734
 Frc consts  --     1.4707                24.7862                 5.4591
 IR Inten    --     2.7995                60.4092                37.2005

                    25                     26                     27
                     A                      A                      A
 Frequencies --  3039.9755              3048.6805              3113.0450
 Red. masses --     1.0837                 1.0361                 1.1018
 Frc consts  --     5.9007                 5.6739                 6.2910
 IR Inten    --    19.0972                29.6530                39.8851

                    28                     29                     30
                     A                      A                      A
 Frequencies --  3123.6692              3162.1015              3260.1045
 Red. masses --     1.1030                 1.0513                 1.1181
 Frc consts  --     6.3412                 6.1935                 7.0015
 IR Inten    --    32.0631                16.0128                17.8097

 - Thermochemistry -
 -------------------
 Temperature   298.150 Kelvin.  Pressure   1.00000 Atm.
 Atom     1 has atomic number  6 and mass  12.00000

 Molecular mass:    75.04460 amu.
 Principal axes and moments of inertia in atomic units:
                           1         2         3
     Eigenvalues --   234.304511074.606601202.18996
           X            0.99991   0.01341   0.00183
           Y           -0.01339   0.99988  -0.00773
           Z           -0.00194   0.00770   0.99997
 This molecule is an asymmetric top.
 Rotational symmetry number  1.
 Rotational temperatures (Kelvin)      0.36966     0.08060     0.07205
 Rotational constants (GHZ):           7.70255     1.67944     1.50121
    1 imaginary frequencies ignored.
 Zero-point vibrational energy     244531.2 (Joules/Mol)
                                   58.44436 (Kcal/Mol)
 Warning -- explicit consideration of   8 degrees of freedom as
           vibrations may cause significant error
 Vibrational temperatures:     41.18    52.90    69.56   121.96   230.72
          (Kelvin)            368.26   533.64   720.35  1097.21  1281.41
                             1338.19  1531.95  1570.74  1710.06  1847.97
                             1984.62  2067.87  2143.61  2156.58  2198.02
                             2210.71  2342.46  4227.08  4373.84  4386.37
                             4478.97  4494.26  4549.55  4690.56

 Zero-point correction=                           0.093137 (Hartree/Particle)
 Thermal correction to Energy=                    0.101295
 Thermal correction to Enthalpy=                  0.102240
 Thermal correction to Gibbs Free Energy=         0.057469
 Sum of electronic and zero-point Energies=           -268.699987
 Sum of electronic and thermal Energies=              -268.691828
 Sum of electronic and thermal Enthalpies=            -268.690884
 Sum of electronic and thermal Free Energies=         -268.735655

                     E (Thermal)             CV                S
                      KCal/Mol        Cal/Mol-Kelvin    Cal/Mol-Kelvin
 Total                   63.564             23.486             94.228
 Electronic               0.000              0.000              1.377
 Translational            0.889              2.981             38.862
 Rotational               0.889              2.981             27.206
 Vibrational             61.786             17.525             26.782
 Vibration     1          0.593              1.984              5.923
 Vibration     2          0.594              1.982              5.426
 Vibration     3          0.595              1.978              4.884
 Vibration     4          0.601              1.960              3.777
 Vibration     5          0.622              1.891              2.546
 Vibration     6          0.666              1.753              1.689
 Vibration     7          0.743              1.532              1.076
 Vibration     8          0.856              1.249              0.656

 Normal termination of Gaussian 09 at Wed Apr  1 00:26:05 2015.
