 Gaussian 09, Revision A.01,
 Gaussian 09:  EM64L-G09RevA.01  8-May-2009

 -------------------------------------------------
 #p ub3lyp/6-31g(d) opt=(modredundant) freq scf=qc
 -------------------------------------------------

 ---------------------------------------------------
 C3H7O2_62_b3631gd using cbs-qb3 to calculate energy
 ---------------------------------------------------
 Symbolic Z-matrix:
 Charge =  0 Multiplicity = 2

 SCF Done:  E(UB3LYP) =  -268.797179355     a.u. after   24 cycles
 SCF Done:  E(UB3LYP) =  -268.797245450     a.u. after    3 cycles
 SCF Done:  E(UB3LYP) =  -268.797257321     a.u. after    3 cycles
 SCF Done:  E(UB3LYP) =  -268.797260703     a.u. after    4 cycles
 SCF Done:  E(UB3LYP) =  -268.797262389     a.u. after    4 cycles
 SCF Done:  E(UB3LYP) =  -268.797263900     a.u. after    3 cycles
 SCF Done:  E(UB3LYP) =  -268.797264179     a.u. after    2 cycles
 SCF Done:  E(UB3LYP) =  -268.797264602     a.u. after    2 cycles
 SCF Done:  E(UB3LYP) =  -268.797265269     a.u. after    3 cycles
 SCF Done:  E(UB3LYP) =  -268.797265455     a.u. after    2 cycles
 SCF Done:  E(UB3LYP) =  -268.797265489     a.u. after    2 cycles
 Optimization completed.
    -- Stationary point found.
 Normal termination of Gaussian 09 at Wed Apr  1 01:07:41 2015.

 --------------------------------------------------------------------
 #P Geom=AllCheck Guess=TCheck SCRF=Check GenChk UB3LYP/6-31G(d) Freq
 --------------------------------------------------------------------

 C3H7O2_62_b3631gd using cbs-qb3 to calculate energy
 ---------------------------------------------------
 Redundant internal coordinates taken from checkpoint file:
 C3H7O2_62_b3631gd_236.chk
 Charge =  0 Multiplicity = 2

                         Standard orientation:
 ---------------------------------------------------------------------
 Center     Atomic      Atomic             Coordinates (Angstroms)
 Number     Number       Type             X           Y           Z
 ---------------------------------------------------------------------
      1          6           0       -1.783537   -0.971607    0.174292
      2          1           0       -0.926832   -1.626966   -0.012645
      3          1           0       -2.655887   -1.395900   -0.334088
      4          1           0       -1.985639   -0.981176    1.252021
      5          6           0       -1.495937    0.451801   -0.318308
      6          1           0       -1.331299    0.452316   -1.405584
      7          1           0       -2.394703    1.078968   -0.167849
      8          6           0       -0.336912    1.100164    0.354468
      9          1           0        0.060085    2.036675   -0.025484
     10          1           0       -0.083652    0.844725    1.379521
     11          8           0        1.462604   -0.163699   -0.506949
     12          8           0        2.414426   -0.322649    0.263373
 ---------------------------------------------------------------------

 SCF Done:  E(UB3LYP) =  -268.797265489     a.u. after    1 cycles

 The electronic state is 2-A.
 Alpha  occ. eigenvalues --  -19.27514 -19.25372 -10.20537 -10.19985 -10.18098
 Alpha  occ. eigenvalues --   -1.23987  -0.80242  -0.78351  -0.67239  -0.58452
 Alpha  occ. eigenvalues --   -0.51191  -0.50414  -0.50124  -0.45835  -0.44450
 Alpha  occ. eigenvalues --   -0.41497  -0.36074  -0.35766  -0.35105  -0.27119
 Alpha  occ. eigenvalues --   -0.26377
 Alpha virt. eigenvalues --   -0.04700   0.09691   0.13784   0.14119   0.15007
 Alpha virt. eigenvalues --    0.16514   0.18187   0.19298   0.21713   0.23537
 Alpha virt. eigenvalues --    0.27291   0.49778   0.50697   0.53913   0.56372

  Beta  occ. eigenvalues --  -19.24923 -19.22833 -10.21671 -10.19918 -10.18110
  Beta  occ. eigenvalues --   -1.18826  -0.79574  -0.72318  -0.68470  -0.59403
  Beta  occ. eigenvalues --   -0.47614  -0.46219  -0.44923  -0.42887  -0.41497
  Beta  occ. eigenvalues --   -0.41098  -0.36409  -0.36217  -0.35321  -0.20498
  Beta virt. eigenvalues --   -0.08254  -0.07926   0.09539   0.12948   0.13893
  Beta virt. eigenvalues --    0.14792   0.16493   0.17999   0.19055   0.22821
  Beta virt. eigenvalues --    0.25528   0.26870   0.49569   0.50590   0.53796

 Mulliken atomic charges:
              1
     1  C   -0.446439
     2  H    0.164081
     3  H    0.147068
     4  H    0.146244
     5  C   -0.265296
     6  H    0.159343
     7  H    0.153990
     8  C   -0.250009
     9  H    0.161722
    10  H    0.164341
    11  O   -0.056029
    12  O   -0.079017
 Sum of Mulliken atomic charges =   0.00000

 Dipole moment (field-independent basis, Debye):
    X=             -1.9120    Y=              0.7764    Z=              0.1230  Tot=              2.0673
 Quadrupole moment (field-independent basis, Debye-Ang):
   XX=            -32.9438   YY=            -29.5819   ZZ=            -30.1627
   XY=              0.4092   XZ=              0.0556   YZ=             -0.0355

  Exact polarizability:  78.353 -13.249  43.044   0.672   0.811  37.370
 Approx polarizability: 113.577 -28.828  60.017   3.179   1.915  54.554

 ******    1 imaginary frequencies (negative Signs) ******

                     1                      2                      3
                     A                      A                      A
 Frequencies --  -194.8812                24.3384                78.9422
 Red. masses --     7.0534                 5.8597                 1.8786
 Frc consts  --     0.1578                 0.0020                 0.0069
 IR Inten    --    43.5731                 0.1198                 0.0785

                     4                      5                      6
                     A                      A                      A
 Frequencies --   101.5108               234.6915               273.7418
 Red. masses --     4.5771                 1.6446                 2.0820
 Frc consts  --     0.0278                 0.0534                 0.0919
 IR Inten    --     0.7701                 1.9643                 9.3426

                     7                      8                      9
                     A                      A                      A
 Frequencies --   383.6887               450.4320               691.1674
 Red. masses --     2.1083                 1.1395                 1.0997
 Frc consts  --     0.1829                 0.1362                 0.3095
 IR Inten    --     0.8370                 2.0263                22.1881

                    10                     11                     12
                     A                      A                      A
 Frequencies --   785.8820               889.2985               936.5306
 Red. masses --     1.2149                 2.0516                 1.2835
 Frc consts  --     0.4421                 0.9559                 0.6633
 IR Inten    --     2.5490                 2.6370                 2.6355

                    13                     14                     15
                     A                      A                      A
 Frequencies --  1069.5167              1095.1616              1190.0861
 Red. masses --     1.4137                 2.3064                 1.8077
 Frc consts  --     0.9527                 1.6298                 1.5085
 IR Inten    --     3.7662                10.4421                 0.1211

                    16                     17                     18
                     A                      A                      A
 Frequencies --  1283.4071              1381.2781              1438.9919
 Red. masses --     1.1934                 1.5148                 1.2625
 Frc consts  --     1.1582                 1.7029                 1.5402
 IR Inten    --     0.9981                41.9846                 4.7402

                    19                     20                     21
                     A                      A                      A
 Frequencies --  1483.4052              1489.3377              1495.9772
 Red. masses --     7.4786                 1.1219                 1.1814
 Frc consts  --     9.6960                 1.4662                 1.5578
 IR Inten    --   311.6227                27.9871                 2.3145

                    22                     23                     24
                     A                      A                      A
 Frequencies --  1527.9919              1537.1824              2954.3153
 Red. masses --     1.0468                 1.0571                 1.0735
 Frc consts  --     1.4399                 1.4717                 5.5201
 IR Inten    --     3.3587                 4.9213                27.2157

                    25                     26                     27
                     A                      A                      A
 Frequencies --  3038.7457              3053.5434              3118.0445
 Red. masses --     1.0843                 1.0365                 1.1016
 Frc consts  --     5.8989                 5.6939                 6.3101
 IR Inten    --    13.5267                27.3845                33.5054

                    28                     29                     30
                     A                      A                      A
 Frequencies --  3131.9454              3165.9693              3264.6402
 Red. masses --     1.1030                 1.0522                 1.1184
 Frc consts  --     6.3746                 6.2136                 7.0231
 IR Inten    --    21.9607                13.5227                11.2726

 - Thermochemistry -
 -------------------
 Temperature   298.150 Kelvin.  Pressure   1.00000 Atm.
 Atom     1 has atomic number  6 and mass  12.00000

 Molecular mass:    75.04460 amu.
 Principal axes and moments of inertia in atomic units:
                           1         2         3
     Eigenvalues --   200.38884 807.96961 908.90366
           X            0.99973   0.02322   0.00212
           Y           -0.02319   0.99962  -0.01515
           Z           -0.00247   0.01509   0.99988
 This molecule is an asymmetric top.
 Rotational symmetry number  1.
 Rotational temperatures (Kelvin)      0.43223     0.10720     0.09529
 Rotational constants (GHZ):           9.00620     2.23367     1.98562
    1 imaginary frequencies ignored.
 Zero-point vibrational energy     248642.4 (Joules/Mol)
                                   59.42696 (Kcal/Mol)
 Warning -- explicit consideration of   7 degrees of freedom as
           vibrations may cause significant error
 Vibrational temperatures:     35.02   113.58   146.05   337.67   393.85
          (Kelvin)            552.04   648.07   994.43  1130.71  1279.50
                             1347.46  1538.79  1575.69  1712.27  1846.53
                             1987.35  2070.39  2134.29  2142.82  2152.37
                             2198.44  2211.66  4250.60  4372.07  4393.36
                             4486.16  4506.17  4555.12  4697.08

 Zero-point correction=                           0.094703 (Hartree/Particle)
 Thermal correction to Energy=                    0.101907
 Thermal correction to Enthalpy=                  0.102852
 Thermal correction to Gibbs Free Energy=         0.061681
 Sum of electronic and zero-point Energies=           -268.702563
 Sum of electronic and thermal Energies=              -268.695358
 Sum of electronic and thermal Enthalpies=            -268.694414
 Sum of electronic and thermal Free Energies=         -268.735585

                     E (Thermal)             CV                S
                      KCal/Mol        Cal/Mol-Kelvin    Cal/Mol-Kelvin
 Total                   63.948             22.252             86.651
 Electronic               0.000              0.000              1.377
 Translational            0.889              2.981             38.862
 Rotational               0.889              2.981             26.490
 Vibrational             62.170             16.290             19.922
 Vibration     1          0.593              1.985              6.244
 Vibration     2          0.600              1.963              3.917
 Vibration     3          0.604              1.948              3.425
 Vibration     4          0.655              1.788              1.843
 Vibration     5          0.676              1.722              1.572
 Vibration     6          0.753              1.505              1.025
 Vibration     7          0.809              1.360              0.794

 Normal termination of Gaussian 09 at Wed Apr  1 01:08:14 2015.
