 Gaussian 09, Revision A.01,
 Gaussian 09:  EM64L-G09RevA.01  8-May-2009

 -----------------------------------------------
 #p ub3lyp/6-31g(d) opt=modredundant freq scf=qc
 -----------------------------------------------

 ---------------------------------------------------
 C3H7O2_62_b3631gd using cbs-qb3 to calculate energy
 ---------------------------------------------------
 Symbolic Z-matrix:
 Charge =  0 Multiplicity = 2

 SCF Done:  E(UB3LYP) =  -268.795606458     a.u. after   23 cycles
 SCF Done:  E(UB3LYP) =  -268.795627593     a.u. after    3 cycles
 SCF Done:  E(UB3LYP) =  -268.795632688     a.u. after    3 cycles
 SCF Done:  E(UB3LYP) =  -268.795634570     a.u. after    4 cycles
 Optimization completed.
    -- Stationary point found.
 Normal termination of Gaussian 09 at Wed Apr  1 01:18:48 2015.

 --------------------------------------------------------------------
 #P Geom=AllCheck Guess=TCheck SCRF=Check GenChk UB3LYP/6-31G(d) Freq
 --------------------------------------------------------------------

 C3H7O2_62_b3631gd using cbs-qb3 to calculate energy
 ---------------------------------------------------
 Redundant internal coordinates taken from checkpoint file:
 C3H7O2_62_b3631gd_256.chk
 Charge =  0 Multiplicity = 2

                         Standard orientation:
 ---------------------------------------------------------------------
 Center     Atomic      Atomic             Coordinates (Angstroms)
 Number     Number       Type             X           Y           Z
 ---------------------------------------------------------------------
      1          6           0       -1.778275   -1.015866    0.176480
      2          1           0       -0.879000   -1.620461    0.019318
      3          1           0       -2.611225   -1.501371   -0.343422
      4          1           0       -2.003714   -1.022255    1.249640
      5          6           0       -1.567389    0.415734   -0.332060
      6          1           0       -1.378952    0.408048   -1.415671
      7          1           0       -2.509936    0.983529   -0.214324
      8          6           0       -0.466705    1.144320    0.357580
      9          1           0       -0.088761    2.079796   -0.043279
     10          1           0       -0.200038    0.902450    1.382391
     11          8           0        1.574647   -0.135094   -0.513232
     12          8           0        2.493583   -0.301763    0.282401
 ---------------------------------------------------------------------

 SCF Done:  E(UB3LYP) =  -268.795634570     a.u. after    1 cycles

 The electronic state is 2-A.
 Alpha  occ. eigenvalues --  -19.28434 -19.27057 -10.19597 -10.19397 -10.17872
 Alpha  occ. eigenvalues --   -1.25839  -0.80954  -0.78047  -0.66660  -0.57853
 Alpha  occ. eigenvalues --   -0.52494  -0.51873  -0.51454  -0.45426  -0.44093
 Alpha  occ. eigenvalues --   -0.41063  -0.35719  -0.35350  -0.34723  -0.28042
 Alpha  occ. eigenvalues --   -0.27546
 Alpha virt. eigenvalues --   -0.04479   0.09967   0.14127   0.14391   0.15278
 Alpha virt. eigenvalues --    0.16779   0.18423   0.19635   0.21548   0.23944
 Alpha virt. eigenvalues --    0.27753   0.50249   0.51085   0.54011   0.57106

  Beta  occ. eigenvalues --  -19.25686 -19.24376 -10.20635 -10.19520 -10.17887
  Beta  occ. eigenvalues --   -1.20420  -0.79042  -0.72735  -0.68133  -0.58989
  Beta  occ. eigenvalues --   -0.48125  -0.45903  -0.44852  -0.43156  -0.42389
  Beta  occ. eigenvalues --   -0.41384  -0.36183  -0.35855  -0.34985  -0.20320
  Beta virt. eigenvalues --   -0.08947  -0.08810   0.09812   0.13138   0.14145
  Beta virt. eigenvalues --    0.15043   0.16767   0.18221   0.19304   0.23277
  Beta virt. eigenvalues --    0.25549   0.27256   0.49993   0.50926   0.53515

 Mulliken atomic charges:
              1
     1  C   -0.445525
     2  H    0.159420
     3  H    0.145535
     4  H    0.145592
     5  C   -0.263892
     6  H    0.155096
     7  H    0.151466
     8  C   -0.269505
     9  H    0.154429
    10  H    0.156701
    11  O   -0.034262
    12  O   -0.055055
 Sum of Mulliken atomic charges =   0.00000

 Dipole moment (field-independent basis, Debye):
    X=             -1.4719    Y=              0.5162    Z=              0.0431  Tot=              1.5604
 Quadrupole moment (field-independent basis, Debye-Ang):
   XX=            -32.2735   YY=            -29.8799   ZZ=            -30.1938
   XY=              0.2824   XZ=              0.0484   YZ=             -0.0708

  Exact polarizability:  78.217 -11.893  42.350   1.419   0.432  37.706
 Approx polarizability: 105.895 -22.983  56.229   5.419   0.548  54.805

 ******    1 imaginary frequencies (negative Signs) ******

                     1                      2                      3
                     A                      A                      A
 Frequencies --   -94.1258                22.6719                65.3309
 Red. masses --     6.5929                 6.1750                 1.8275
 Frc consts  --     0.0344                 0.0019                 0.0046
 IR Inten    --    20.5099                 0.0445                 0.2451

                     4                      5                      6
                     A                      A                      A
 Frequencies --    78.5791               195.6388               256.3922
 Red. masses --     4.6949                 3.5086                 1.2505
 Frc consts  --     0.0171                 0.0791                 0.0484
 IR Inten    --     0.6856                 6.3085                 3.0359

                     7                      8                      9
                     A                      A                      A
 Frequencies --   334.4853               383.5670               615.5194
 Red. masses --     1.1282                 2.0420                 1.1331
 Frc consts  --     0.0744                 0.1770                 0.2529
 IR Inten    --     1.2143                 0.2457                36.6503

                    10                     11                     12
                     A                      A                      A
 Frequencies --   770.4002               888.0409               935.2436
 Red. masses --     1.2076                 2.0656                 1.2834
 Frc consts  --     0.4223                 0.9598                 0.6614
 IR Inten    --     1.0523                 2.1699                 2.3684

                    13                     14                     15
                     A                      A                      A
 Frequencies --  1065.9203              1093.4178              1187.5388
 Red. masses --     1.3764                 2.3736                 1.8098
 Frc consts  --     0.9214                 1.6720                 1.5037
 IR Inten    --     1.6538                 9.7895                 0.1626

                    16                     17                     18
                     A                      A                      A
 Frequencies --  1282.2129              1380.7608              1438.6865
 Red. masses --     1.1957                 1.4910                 1.2540
 Frc consts  --     1.1582                 1.6748                 1.5293
 IR Inten    --     0.9916                24.6934                 2.7799

                    19                     20                     21
                     A                      A                      A
 Frequencies --  1491.7568              1494.2377              1527.3594
 Red. masses --     1.1003                 1.1428                 1.0735
 Frc consts  --     1.4427                 1.5034                 1.4755
 IR Inten    --     2.6676                 2.2171                28.7205

                    22                     23                     24
                     A                      A                      A
 Frequencies --  1536.6882              1541.0242              2947.2494
 Red. masses --     1.0807                 8.4300                 1.0736
 Frc consts  --     1.5036                11.7950                 5.4947
 IR Inten    --     5.0526               259.0222                30.3173

                    25                     26                     27
                     A                      A                      A
 Frequencies --  3034.2037              3051.8809              3116.3604
 Red. masses --     1.0839                 1.0360                 1.1017
 Frc consts  --     5.8796                 5.6852                 6.3039
 IR Inten    --    16.4677                27.4144                34.8817

                    28                     29                     30
                     A                      A                      A
 Frequencies --  3128.4698              3166.3101              3265.0615
 Red. masses --     1.1031                 1.0517                 1.1185
 Frc consts  --     6.3608                 6.2123                 7.0251
 IR Inten    --    25.0236                13.9285                12.9356

 - Thermochemistry -
 -------------------
 Temperature   298.150 Kelvin.  Pressure   1.00000 Atm.
 Atom     1 has atomic number  6 and mass  12.00000

 Molecular mass:    75.04460 amu.
 Principal axes and moments of inertia in atomic units:
                           1         2         3
     Eigenvalues --   209.01412 865.71828 971.92190
           X            0.99977   0.02142   0.00212
           Y           -0.02139   0.99968  -0.01377
           Z           -0.00242   0.01372   0.99990
 This molecule is an asymmetric top.
 Rotational symmetry number  1.
 Rotational temperatures (Kelvin)      0.41439     0.10005     0.08912
 Rotational constants (GHZ):           8.63454     2.08467     1.85688
    1 imaginary frequencies ignored.
 Zero-point vibrational energy     246999.0 (Joules/Mol)
                                   59.03418 (Kcal/Mol)
 Warning -- explicit consideration of   8 degrees of freedom as
           vibrations may cause significant error
 Vibrational temperatures:     32.62    94.00   113.06   281.48   368.89
          (Kelvin)            481.25   551.87   885.59  1108.43  1277.69
                             1345.61  1533.62  1573.18  1708.60  1844.82
                             1986.60  2069.95  2146.30  2149.87  2197.53
                             2210.95  2217.19  4240.43  4365.54  4390.97
                             4483.74  4501.16  4555.61  4697.69

 Zero-point correction=                           0.094077 (Hartree/Particle)
 Thermal correction to Energy=                    0.101596
 Thermal correction to Enthalpy=                  0.102540
 Thermal correction to Gibbs Free Energy=         0.060323
 Sum of electronic and zero-point Energies=           -268.701558
 Sum of electronic and thermal Energies=              -268.694039
 Sum of electronic and thermal Enthalpies=            -268.693094
 Sum of electronic and thermal Free Energies=         -268.735311

                     E (Thermal)             CV                S
                      KCal/Mol        Cal/Mol-Kelvin    Cal/Mol-Kelvin
 Total                   63.752             22.786             88.853
 Electronic               0.000              0.000              1.377
 Translational            0.889              2.981             38.862
 Rotational               0.889              2.981             26.667
 Vibrational             61.975             16.825             21.946
 Vibration     1          0.593              1.985              6.385
 Vibration     2          0.597              1.971              4.289
 Vibration     3          0.600              1.964              3.926
 Vibration     4          0.636              1.846              2.174
 Vibration     5          0.666              1.752              1.686
 Vibration     6          0.716              1.607              1.238
 Vibration     7          0.753              1.505              1.025
 Vibration     8          0.975              0.999              0.424

 Normal termination of Gaussian 09 at Wed Apr  1 01:19:21 2015.
