 Gaussian 09, Revision A.01,
 Gaussian 09:  EM64L-G09RevA.01  8-May-2009

 ----------------------------------------
 #p ub3lyp/6-31g(d) opt=modredundant freq
 ----------------------------------------

 ---------------------------------------------------
 C3H7O2_62_b3631gd using cbs-qb3 to calculate energy
 ---------------------------------------------------
 Symbolic Z-matrix:
 Charge =  0 Multiplicity = 2

 SCF Done:  E(UB3LYP) =  -268.793628180     A.U. after   20 cycles
 SCF Done:  E(UB3LYP) =  -268.793630203     A.U. after    9 cycles
 Optimization completed.
    -- Stationary point found.
 Normal termination of Gaussian 09 at Wed Apr  1 00:24:37 2015.

 --------------------------------------------------------------------
 #P Geom=AllCheck Guess=TCheck SCRF=Check GenChk UB3LYP/6-31G(d) Freq
 --------------------------------------------------------------------

 C3H7O2_62_b3631gd using cbs-qb3 to calculate energy
 ---------------------------------------------------
 Redundant internal coordinates taken from checkpoint file:
 C3H7O2_62_b3631gd_306.chk
 Charge =  0 Multiplicity = 2

                         Standard orientation:
 ---------------------------------------------------------------------
 Center     Atomic      Atomic             Coordinates (Angstroms)
 Number     Number       Type             X           Y           Z
 ---------------------------------------------------------------------
      1          6           0       -1.724234   -1.123362    0.175359
      2          1           0       -0.741538   -1.568224   -0.014679
      3          1           0       -2.481291   -1.743182   -0.317645
      4          1           0       -1.907591   -1.166905    1.255786
      5          6           0       -1.774965    0.324522   -0.332076
      6          1           0       -1.621390    0.345753   -1.420579
      7          1           0       -2.799341    0.716985   -0.182886
      8          6           0       -0.791007    1.226147    0.332177
      9          1           0       -0.492615    2.163378   -0.127289
     10          1           0       -0.501319    1.062196    1.366478
     11          8           0        1.843441   -0.073139   -0.531292
     12          8           0        2.692350   -0.223591    0.329798
 ---------------------------------------------------------------------

 SCF Done:  E(UB3LYP) =  -268.793630203     A.U. after    1 cycles

 The electronic state is 2-A.
 Alpha  occ. eigenvalues --  -19.30013 -19.29526 -10.19009 -10.17954 -10.17525
 Alpha  occ. eigenvalues --   -1.28427  -0.82493  -0.77379  -0.65862  -0.56989
 Alpha  occ. eigenvalues --   -0.54479  -0.54253  -0.53311  -0.44967  -0.43405
 Alpha  occ. eigenvalues --   -0.40287  -0.35315  -0.34744  -0.34038  -0.29577
 Alpha  occ. eigenvalues --   -0.29397
 Alpha virt. eigenvalues --   -0.04060   0.10389   0.14600   0.14878   0.15634
 Alpha virt. eigenvalues --    0.17207   0.18700   0.20304   0.20783   0.24537
 Alpha virt. eigenvalues --    0.28289   0.51126   0.51917   0.53779   0.57591

  Beta  occ. eigenvalues --  -19.27123 -19.26672 -10.19285 -10.18925 -10.17552
  Beta  occ. eigenvalues --   -1.22746  -0.78303  -0.73829  -0.67531  -0.58341
  Beta  occ. eigenvalues --   -0.49501  -0.45532  -0.44591  -0.44368  -0.43875
  Beta  occ. eigenvalues --   -0.40802  -0.35921  -0.35293  -0.34341  -0.19952
  Beta virt. eigenvalues --   -0.10219  -0.10182   0.10208   0.13631   0.14433
  Beta virt. eigenvalues --    0.15394   0.17187   0.18497   0.19905   0.24029
  Beta virt. eigenvalues --    0.24916   0.27693   0.50778   0.51242   0.52051

 Mulliken atomic charges:
              1
     1  C   -0.442845
     2  H    0.153088
     3  H    0.142953
     4  H    0.144297
     5  C   -0.260390
     6  H    0.147541
     7  H    0.147675
     8  C   -0.293400
     9  H    0.145173
    10  H    0.145156
    11  O   -0.008144
    12  O   -0.021103
 Sum of Mulliken atomic charges =   0.00000

 Dipole moment (field-independent basis, Debye):
    X=             -0.7640    Y=              0.1509    Z=             -0.0452  Tot=              0.7801
 Quadrupole moment (field-independent basis, Debye-Ang):
   XX=            -31.1815   YY=            -30.3604   ZZ=            -30.2509
   XY=              0.1998   XZ=              0.0413   YZ=             -0.1257

  Exact polarizability:  69.269  -6.300  40.560   3.470  -0.330  38.375
 Approx polarizability:  83.368  -9.745  49.818   9.091  -1.184  55.826

 ******    1 imaginary frequencies (negative Signs) ******

                     1                      2                      3
                     A                      A                      A
 Frequencies --   -50.9965                14.0845                32.2963
 Red. masses --     4.7853                 2.3809                 2.9775
 Frc consts  --     0.0073                 0.0003                 0.0018
 IR Inten    --     5.0529                 0.2563                 0.1538

                     4                      5                      6
                     A                      A                      A
 Frequencies --    45.9275               107.7115               183.6531
 Red. masses --     6.7700                 6.1685                 1.0684
 Frc consts  --     0.0084                 0.0422                 0.0212
 IR Inten    --     0.0285                 1.9393                 0.4176

                     7                      8                      9
                     A                      A                      A
 Frequencies --   255.0813               372.4606               517.3167
 Red. masses --     1.1095                 1.9926                 1.2454
 Frc consts  --     0.0425                 0.1629                 0.1964
 IR Inten    --     0.0664                 1.5333                46.5834

                    10                     11                     12
                     A                      A                      A
 Frequencies --   761.2630               889.4962               931.2050
 Red. masses --     1.1827                 2.0328                 1.2878
 Frc consts  --     0.4038                 0.9476                 0.6579
 IR Inten    --     1.6312                 0.9481                 2.0493

                    13                     14                     15
                     A                      A                      A
 Frequencies --  1063.5114              1091.7120              1187.9511
 Red. masses --     1.4016                 2.3759                 1.7972
 Frc consts  --     0.9340                 1.6684                 1.4943
 IR Inten    --     0.1919                 4.2517                 0.4030

                    16                     17                     18
                     A                      A                      A
 Frequencies --  1282.4697              1378.9251              1434.8160
 Red. masses --     1.1942                 1.4599                 1.2484
 Frc consts  --     1.1572                 1.6355                 1.5143
 IR Inten    --     1.0062                 9.2624                 1.7615

                    19                     20                     21
                     A                      A                      A
 Frequencies --  1490.9265              1496.5911              1527.3045
 Red. masses --     1.1680                 1.0767                 1.0420
 Frc consts  --     1.5297                 1.4209                 1.4321
 IR Inten    --     0.7953                 1.5072                 6.4442

                    22                     23                     24
                     A                      A                      A
 Frequencies --  1535.9265              1611.8734              2938.3957
 Red. masses --     1.0572                15.7363                 1.0735
 Frc consts  --     1.4695                24.0887                 5.4609
 IR Inten    --     2.8927               109.9483                35.7323

                    25                     26                     27
                     A                      A                      A
 Frequencies --  3037.4334              3048.9289              3113.6085
 Red. masses --     1.0839                 1.0357                 1.1018
 Frc consts  --     5.8919                 5.6725                 6.2934
 IR Inten    --    19.3068                28.4862                38.5001

                    28                     29                     30
                     A                      A                      A
 Frequencies --  3123.7646              3163.0953              3261.1699
 Red. masses --     1.1031                 1.0514                 1.1182
 Frc consts  --     6.3422                 6.1979                 7.0065
 IR Inten    --    30.6116                15.4136                16.7699

 - Thermochemistry -
 -------------------
 Temperature   298.150 Kelvin.  Pressure   1.00000 Atm.
 Atom     1 has atomic number  6 and mass  12.00000

 Molecular mass:    75.04460 amu.
 Principal axes and moments of inertia in atomic units:
                           1         2         3
     Eigenvalues --   227.139131022.341021142.92132
           X            0.99987   0.01593   0.00179
           Y           -0.01592   0.99983  -0.00976
           Z           -0.00194   0.00973   0.99995
 This molecule is an asymmetric top.
 Rotational symmetry number  1.
 Rotational temperatures (Kelvin)      0.38132     0.08472     0.07578
 Rotational constants (GHZ):           7.94553     1.76530     1.57906
    1 imaginary frequencies ignored.
 Zero-point vibrational energy     244629.7 (Joules/Mol)
                                   58.46791 (Kcal/Mol)
 Warning -- explicit consideration of   8 degrees of freedom as
           vibrations may cause significant error
 Vibrational temperatures:     20.26    46.47    66.08   154.97   264.24
          (Kelvin)            367.00   535.89   744.30  1095.29  1279.79
                             1339.79  1530.15  1570.73  1709.19  1845.19
                             1983.96  2064.38  2145.11  2153.26  2197.45
                             2209.85  2319.12  4227.69  4370.18  4386.72
                             4479.78  4494.39  4550.98  4692.09

 Zero-point correction=                           0.093175 (Hartree/Particle)
 Thermal correction to Energy=                    0.101285
 Thermal correction to Enthalpy=                  0.102230
 Thermal correction to Gibbs Free Energy=         0.057043
 Sum of electronic and zero-point Energies=           -268.700456
 Sum of electronic and thermal Energies=              -268.692345
 Sum of electronic and thermal Enthalpies=            -268.691401
 Sum of electronic and thermal Free Energies=         -268.736587

                     E (Thermal)             CV                S
                      KCal/Mol        Cal/Mol-Kelvin    Cal/Mol-Kelvin
 Total                   63.558             23.416             95.103
 Electronic               0.000              0.000              1.377
 Translational            0.889              2.981             38.862
 Rotational               0.889              2.981             27.076
 Vibrational             61.780             17.454             27.788
 Vibration     1          0.593              1.986              7.331
 Vibration     2          0.594              1.983              5.683
 Vibration     3          0.595              1.979              4.985
 Vibration     4          0.606              1.943              3.310
 Vibration     5          0.631              1.862              2.291
 Vibration     6          0.665              1.754              1.695
 Vibration     7          0.744              1.529              1.070
 Vibration     8          0.872              1.212              0.616

 Normal termination of Gaussian 09 at Wed Apr  1 00:25:09 2015.
