 Gaussian 09, Revision A.01,
 Gaussian 09:  EM64L-G09RevA.01  8-May-2009

 ---------------------------
 #p opt freq ub3lyp/6-31g(d)
 ---------------------------

 ------------------------------------------------------
 RO2_3_2_opt_ub3631gd using cbs-qb3 to calculate energy
 ------------------------------------------------------
 Symbolic Z-matrix:
 Charge =  0 Multiplicity = 2

 SCF Done:  E(UB3LYP) =  -268.848493190     A.U. after   20 cycles
 SCF Done:  E(UB3LYP) =  -268.848701813     A.U. after   14 cycles
 SCF Done:  E(UB3LYP) =  -268.848706854     A.U. after   12 cycles
 SCF Done:  E(UB3LYP) =  -268.848707784     A.U. after   12 cycles
 SCF Done:  E(UB3LYP) =  -268.848708044     A.U. after   11 cycles
 SCF Done:  E(UB3LYP) =  -268.848708464     A.U. after   12 cycles
 SCF Done:  E(UB3LYP) =  -268.848708542     A.U. after   11 cycles
 Optimization completed.
    -- Stationary point found.
 Normal termination of Gaussian 09 at Wed Apr  1 00:03:40 2015.

 --------------------------------------------------------------------
 #P Geom=AllCheck Guess=TCheck SCRF=Check GenChk UB3LYP/6-31G(d) Freq
 --------------------------------------------------------------------

 RO2_3_2_opt_ub3631gd using cbs-qb3 to calculate energy
 ------------------------------------------------------
 Redundant internal coordinates taken from checkpoint file:
 C3H7O2_61_b3631gd.chk
 Charge =  0 Multiplicity = 2

                         Standard orientation:
 ---------------------------------------------------------------------
 Center     Atomic      Atomic             Coordinates (Angstroms)
 Number     Number       Type             X           Y           Z
 ---------------------------------------------------------------------
      1          6           0       -1.912510   -0.706941    0.141897
      2          1           0       -1.364177   -1.570810   -0.246643
      3          1           0       -2.930845   -0.744280   -0.258950
      4          1           0       -1.976923   -0.812414    1.231621
      5          6           0       -1.221890    0.605190   -0.245732
      6          1           0       -1.202786    0.717527   -1.337150
      7          1           0       -1.788028    1.461191    0.144328
      8          6           0        0.199030    0.725596    0.282605
      9          1           0        0.656561    1.689998    0.040224
     10          1           0        0.263700    0.558010    1.362582
     11          8           0        1.005791   -0.307666   -0.363931
     12          8           0        2.238550   -0.322621    0.112853
 ---------------------------------------------------------------------

 SCF Done:  E(UB3LYP) =  -268.848708542     A.U. after    1 cycles

 The electronic state is 2-A.
 Alpha  occ. eigenvalues --  -19.25910 -19.21072 -10.24930 -10.20367 -10.18581
 Alpha  occ. eigenvalues --   -1.17984  -0.87908  -0.77730  -0.68524  -0.60544
 Alpha  occ. eigenvalues --   -0.51820  -0.51470  -0.47246  -0.44705  -0.42990
 Alpha  occ. eigenvalues --   -0.40580  -0.36470  -0.35993  -0.35479  -0.27156
 Alpha  occ. eigenvalues --   -0.26997
 Alpha virt. eigenvalues --    0.07661   0.10482   0.12979   0.13182   0.14377
 Alpha virt. eigenvalues --    0.15230   0.17083   0.18074   0.19277   0.21724
 Alpha virt. eigenvalues --    0.25279   0.49513   0.50310   0.51877   0.53964

  Beta  occ. eigenvalues --  -19.24974 -19.19200 -10.24972 -10.20369 -10.18580
  Beta  occ. eigenvalues --   -1.15310  -0.85336  -0.76707  -0.67883  -0.60285
  Beta  occ. eigenvalues --   -0.50481  -0.49125  -0.46441  -0.43836  -0.41279
  Beta  occ. eigenvalues --   -0.38261  -0.36098  -0.35559  -0.34254  -0.25244
  Beta virt. eigenvalues --   -0.09986   0.08086   0.10986   0.13096   0.13248
  Beta virt. eigenvalues --    0.14828   0.15526   0.17477   0.18646   0.19372
  Beta virt. eigenvalues --    0.21831   0.25349   0.49616   0.50385   0.52009

 Mulliken atomic charges:
              1
     1  C   -0.448017
     2  H    0.170389
     3  H    0.152081
     4  H    0.146899
     5  C   -0.289280
     6  H    0.159682
     7  H    0.151632
     8  C   -0.023823
     9  H    0.164024
    10  H    0.162855
    11  O   -0.177146
    12  O   -0.169296
 Sum of Mulliken atomic charges =   0.00000

 Dipole moment (field-independent basis, Debye):
    X=             -2.4866    Y=              1.4181    Z=              0.4424  Tot=              2.8965
 Quadrupole moment (field-independent basis, Debye-Ang):
   XX=            -34.7783   YY=            -29.7696   ZZ=            -30.1055
   XY=              1.1853   XZ=              0.1835   YZ=             -0.2524

  Exact polarizability:  50.946  -1.745  36.739   1.713  -0.201  34.546
 Approx polarizability:  65.900  -3.819  48.141   4.143   0.501  48.889

                     1                      2                      3
                     A                      A                      A
 Frequencies --    60.5899               135.4639               204.2976
 Red. masses --     7.5758                 2.2670                 1.4271
 Frc consts  --     0.0164                 0.0245                 0.0351
 IR Inten    --     0.3941                 1.6609                 1.1359

                     4                      5                      6
                     A                      A                      A
 Frequencies --   299.1529               380.9670               520.9768
 Red. masses --     1.6932                 2.9920                 3.6162
 Frc consts  --     0.0893                 0.2558                 0.5783
 IR Inten    --     0.4926                 1.6271                 6.9565

                     7                      8                      9
                     A                      A                      A
 Frequencies --   756.9252               885.9478               914.3069
 Red. masses --     1.3448                 2.2653                 1.7730
 Frc consts  --     0.4540                 1.0476                 0.8733
 IR Inten    --     0.7700                 0.5866                10.8341

                    10                     11                     12
                     A                      A                      A
 Frequencies --   932.2531              1068.5708              1132.8357
 Red. masses --     1.6449                 2.1078                 1.9368
 Frc consts  --     0.8423                 1.4181                 1.4645
 IR Inten    --    12.7409                 3.7283                 2.0652

                    13                     14                     15
                     A                      A                      A
 Frequencies --  1167.2642              1211.4911              1257.2224
 Red. masses --     1.7909                 9.5837                 1.2033
 Frc consts  --     1.4377                 8.2875                 1.1206
 IR Inten    --     1.8157                14.9005                 1.7065

                    16                     17                     18
                     A                      A                      A
 Frequencies --  1318.8038              1387.6276              1412.6705
 Red. masses --     1.1829                 1.3007                 1.4937
 Frc consts  --     1.2122                 1.4756                 1.7562
 IR Inten    --     0.8744                15.1325                 5.7362

                    19                     20                     21
                     A                      A                      A
 Frequencies --  1445.1135              1507.1053              1516.8365
 Red. masses --     1.2470                 1.0759                 1.0779
 Frc consts  --     1.5344                 1.4399                 1.4611
 IR Inten    --     5.1384                 3.2803                 3.1493

                    22                     23                     24
                     A                      A                      A
 Frequencies --  1531.8894              1538.3624              3049.8252
 Red. masses --     1.0511                 1.0570                 1.0609
 Frc consts  --     1.4533                 1.4739                 5.8137
 IR Inten    --     7.0444                 6.0784                14.2029

                    25                     26                     27
                     A                      A                      A
 Frequencies --  3054.4555              3071.8035              3085.8044
 Red. masses --     1.0379                 1.0634                 1.0947
 Frc consts  --     5.7054                 5.9121                 6.1416
 IR Inten    --    24.2164                 9.0740                17.0212

                    28                     29                     30
                     A                      A                      A
 Frequencies --  3119.7773              3129.5057              3135.4676
 Red. masses --     1.1020                 1.1100                 1.1027
 Frc consts  --     6.3195                 6.4053                 6.3874
 IR Inten    --    30.0823                35.6370                27.3762

 - Thermochemistry -
 -------------------
 Temperature   298.150 Kelvin.  Pressure   1.00000 Atm.
 Atom     1 has atomic number  6 and mass  12.00000

 Molecular mass:    75.04460 amu.
 Principal axes and moments of inertia in atomic units:
                           1         2         3
     Eigenvalues --   139.07096 667.90210 738.52874
           X            0.99971   0.02391   0.00140
           Y           -0.02388   0.99959  -0.01595
           Z           -0.00178   0.01591   0.99987
 This molecule is an asymmetric top.
 Rotational symmetry number  1.
 Rotational temperatures (Kelvin)      0.62280     0.12968     0.11728
 Rotational constants (GHZ):          12.97712     2.70210     2.44370
 Zero-point vibrational energy     264574.0 (Joules/Mol)
                                   63.23470 (Kcal/Mol)
 Warning -- explicit consideration of   6 degrees of freedom as
           vibrations may cause significant error
 Vibrational temperatures:     87.18   194.90   293.94   430.41   548.13
          (Kelvin)            749.57  1089.05  1274.68  1315.48  1341.30
                             1537.43  1629.90  1679.43  1743.06  1808.86
                             1897.46  1996.48  2032.52  2079.19  2168.39
                             2182.39  2204.04  2213.36  4388.01  4394.67
                             4419.63  4439.78  4488.66  4502.66  4511.23

 Zero-point correction=                           0.100771 (Hartree/Particle)
 Thermal correction to Energy=                    0.106993
 Thermal correction to Enthalpy=                  0.107938
 Thermal correction to Gibbs Free Energy=         0.070190
 Sum of electronic and zero-point Energies=           -268.747938
 Sum of electronic and thermal Energies=              -268.741715
 Sum of electronic and thermal Enthalpies=            -268.740771
 Sum of electronic and thermal Free Energies=         -268.778518

                     E (Thermal)             CV                S
                      KCal/Mol        Cal/Mol-Kelvin    Cal/Mol-Kelvin
 Total                   67.139             20.133             79.446
 Electronic               0.000              0.000              1.377
 Translational            0.889              2.981             38.862
 Rotational               0.889              2.981             25.731
 Vibrational             65.362             14.171             13.475
 Vibration     1          0.597              1.973              4.438
 Vibration     2          0.613              1.918              2.867
 Vibration     3          0.640              1.834              2.094
 Vibration     4          0.692              1.675              1.422
 Vibration     5          0.751              1.511              1.035
 Vibration     6          0.876              1.204              0.608

 Optimization completed.
    -- Stationary point found.
 Normal termination of Gaussian 09 at Wed Apr  1 00:03:59 2015.
