 Gaussian 09, Revision C.01,

 --------------------
 # opt am1 scrf=check
 --------------------

 ----------------------------------------------------------------------
 C9H19O2_1_26 using B3LYP/6-311++g(d,p) to do opt and cal. freq CBS-QB3
  to cal. energy
 ----------------------------------------------------------------------
 Charge =  0 Multiplicity = 2

 SCF Done:  E(UAM1) =  0.261435291581     A.U. after   59 cycles
 SCF Done:  E(UAM1) =  0.173970452755     A.U. after   77 cycles
 SCF Done:  E(UAM1) =  0.619379106873E-01 A.U. after   36 cycles
 SCF Done:  E(UAM1) = -0.194242781413E-01 A.U. after   29 cycles
 SCF Done:  E(UAM1) =  0.292973565486E-01 A.U. after   38 cycles
 SCF Done:  E(UAM1) = -0.331448225704E-01 A.U. after   25 cycles
 SCF Done:  E(UAM1) = -0.351652233919E-01 A.U. after   27 cycles
 SCF Done:  E(UAM1) = -0.327671501565E-01 A.U. after   27 cycles
 SCF Done:  E(UAM1) = -0.403583380331E-01 A.U. after   22 cycles
 SCF Done:  E(UAM1) = -0.453466372609E-01 A.U. after   21 cycles
 Optimization completed.
    -- Stationary point found.
 Normal termination of Gaussian 09 at Mon Feb  3 01:27:21 2014.

 --------------------------------------------------------------------
 # geom=allcheck guess=tcheck scrf=check B3LYP/6-311++G(d,p) opt freq
 --------------------------------------------------------------------

 ----------------------------------------------------------------------
 C9H19O2_1_26 using B3LYP/6-311++g(d,p) to do opt and cal. freq CBS-QB3
  to cal. energy
 ----------------------------------------------------------------------
 Charge =  0 Multiplicity = 2

 SCF Done:  E(UB3LYP) =  -504.877198408     A.U. after   12 cycles
 SCF Done:  E(UB3LYP) =  -504.877198319     A.U. after   11 cycles
 Optimization completed.
 Normal termination of Gaussian 09 at Mon Feb  3 03:08:26 2014.

 ----------------------------------------------------------------------
 #N Geom=AllCheck Guess=TCheck SCRF=Check GenChk UB3LYP/6-311++G(d,p) F
 req
 ----------------------------------------------------------------------

 ----------------------------------------------------------------------
 C9H19O2_1_26 using B3LYP/6-311++g(d,p) to do opt and cal. freq CBS-QB3
  to cal. energy
 ----------------------------------------------------------------------
 Charge =  0 Multiplicity = 2

 SCF Done:  E(UB3LYP) =  -504.877198319     A.U. after    1 cycles
    -- Stationary point found.
 Normal termination of Gaussian 09 at Mon Feb  3 03:45:39 2014.
 Gaussian 09:  EM64L-G09RevC.01 23-Sep-2011

 ----------------------------------------------------------------------
 # cbs-qb3 opt=(calcfc,modredundant) freq geom=allcheck guess=tcheck sc
 rf=check
 ----------------------------------------------------------------------

 ----------------------------------------------------------------------
 C9H19O2_1_26 using B3LYP/6-311++g(d,p) to do opt and cal. freq CBS-QB3
  to cal. energy
 ----------------------------------------------------------------------
 Charge =  0 Multiplicity = 2

 SCF Done:  E(UB3LYP) =  -504.870410092     A.U. after   14 cycles
 SCF Done:  E(UB3LYP) =  -504.870475662     A.U. after   15 cycles
 SCF Done:  E(UB3LYP) =  -504.870483913     A.U. after   13 cycles
 SCF Done:  E(UB3LYP) =  -504.870485106     A.U. after   13 cycles
 SCF Done:  E(UB3LYP) =  -504.870485665     A.U. after   13 cycles
 Optimization completed.
    -- Stationary point found.
 Normal termination of Gaussian 09 at Mon Feb  3 04:41:35 2014.

 ---------------------------------------------------------
 #N Geom=AllCheck Guess=TCheck SCRF=Check B3LYP/CBSB7 Freq
 ---------------------------------------------------------

 ----------------------------------------------------------------------
 C9H19O2_1_26 using B3LYP/6-311++g(d,p) to do opt and cal. freq CBS-QB3
  to cal. energy
 ----------------------------------------------------------------------
 Charge =  0 Multiplicity = 2

 SCF Done:  E(UB3LYP) =  -504.870485665     A.U. after    1 cycles

 The electronic state is 2-A.
 Alpha  occ. eigenvalues --  -19.23485 -19.18378 -10.23497 -10.19258 -10.17205
 Alpha  occ. eigenvalues --  -10.16914 -10.16724 -10.16426 -10.16190 -10.15491
 Alpha  occ. eigenvalues --  -10.15387  -1.19105  -0.88644  -0.82209  -0.80233
 Alpha  occ. eigenvalues --   -0.75065  -0.68972  -0.68245  -0.67661  -0.60971
 Alpha  occ. eigenvalues --   -0.57668  -0.55803  -0.52706  -0.51081  -0.49367
 Alpha  occ. eigenvalues --   -0.47431  -0.45222  -0.44441  -0.43623  -0.43089
 Alpha  occ. eigenvalues --   -0.42536  -0.40394  -0.38474  -0.38384  -0.37262
 Alpha  occ. eigenvalues --   -0.36873  -0.35792  -0.35496  -0.34371  -0.33497
 Alpha  occ. eigenvalues --   -0.32131  -0.31981  -0.30949  -0.27874  -0.27663
 Alpha virt. eigenvalues --    0.03318   0.04380   0.05587   0.06437   0.06734
 Alpha virt. eigenvalues --    0.07597   0.08733   0.08990   0.09873   0.10299
 Alpha virt. eigenvalues --    0.10905   0.11662   0.12531   0.12721   0.13693

  Beta  occ. eigenvalues --  -19.22481 -19.16442 -10.23530 -10.19223 -10.17205
  Beta  occ. eigenvalues --  -10.16912 -10.16724 -10.16426 -10.16190 -10.15491
  Beta  occ. eigenvalues --  -10.15387  -1.16410  -0.86185  -0.81833  -0.79705
  Beta  occ. eigenvalues --   -0.74899  -0.68538  -0.68242  -0.67295  -0.60875
  Beta  occ. eigenvalues --   -0.57291  -0.55784  -0.50780  -0.50197  -0.48439
  Beta  occ. eigenvalues --   -0.46798  -0.44533  -0.44046  -0.42821  -0.42503
  Beta  occ. eigenvalues --   -0.40742  -0.39701  -0.38387  -0.38249  -0.36962
  Beta  occ. eigenvalues --   -0.36578  -0.35472  -0.35170  -0.33648  -0.33444
  Beta  occ. eigenvalues --   -0.32128  -0.31895  -0.30925  -0.26140
  Beta virt. eigenvalues --   -0.10933   0.03381   0.04393   0.05649   0.06463
  Beta virt. eigenvalues --    0.06945   0.07845   0.08841   0.09265   0.10054
  Beta virt. eigenvalues --    0.10428   0.10968   0.11726   0.12601   0.12980

 Mulliken atomic charges:
              1
     1  C   -0.266537
     2  H    0.110184
     3  H    0.122147
     4  H    0.103111
     5  C   -0.223752
     6  H    0.119025
     7  C   -0.193681
     8  H    0.107339
     9  H    0.124399
    10  C   -0.196710
    11  H    0.092564
    12  H    0.120961
    13  C   -0.189720
    14  H    0.105514
    15  H    0.099928
    16  C   -0.206868
    17  H    0.105800
    18  C   -0.267002
    19  H    0.099891
    20  H    0.103047
    21  H    0.101340
    22  C    0.005797
    23  H    0.129104
    24  H    0.143736
    25  C   -0.265633
    26  H    0.102764
    27  H    0.102863
    28  H    0.104224
    29  O   -0.133917
    30  O   -0.159916
 Sum of Mulliken atomic charges =   0.00000

 Dipole moment (field-independent basis, Debye):
    X=             -0.1506    Y=             -1.8924    Z=              1.9659  Tot=              2.7329
 Quadrupole moment (field-independent basis, Debye-Ang):
   XX=            -71.4786   YY=            -75.0568   ZZ=            -71.3398
   XY=              3.7955   XZ=             -4.6385   YZ=              2.4476

  Exact polarizability: 131.618   6.812 107.745  -4.161  -0.412  98.522
 Approx polarizability: 156.826   7.639 153.233  -5.669  -7.589 151.859

                     1                      2                      3
                     A                      A                      A
 Frequencies --    34.2131                39.5250                63.5210
 Red. masses --     2.8929                 4.9830                 6.6845
 Frc consts  --     0.0020                 0.0046                 0.0159
 IR Inten    --     0.4551                 1.3086                 0.5039

                     4                      5                      6
                     A                      A                      A
 Frequencies --    92.0591                94.9134               123.1460
 Red. masses --     3.1688                 3.6491                 1.7553
 Frc consts  --     0.0158                 0.0194                 0.0157
 IR Inten    --     0.1915                 2.0278                 0.1218

                     7                      8                      9
                     A                      A                      A
 Frequencies --   161.0081               214.4226               226.6114
 Red. masses --     2.4634                 1.6494                 1.2840
 Frc consts  --     0.0376                 0.0447                 0.0388
 IR Inten    --     0.4795                 0.3424                 0.6000

                    10                     11                     12
                     A                      A                      A
 Frequencies --   229.7833               245.2396               252.6213
 Red. masses --     1.6155                 2.7327                 1.9387
 Frc consts  --     0.0503                 0.0968                 0.0729
 IR Inten    --     0.6090                 0.9441                 0.7994

                    13                     14                     15
                     A                      A                      A
 Frequencies --   261.1575               360.1338               377.7437
 Red. masses --     1.1570                 2.5712                 2.4819
 Frc consts  --     0.0465                 0.1965                 0.2087
 IR Inten    --     0.1166                 0.4908                 0.8336

                    16                     17                     18
                     A                      A                      A
 Frequencies --   415.4502               450.4567               487.4214
 Red. masses --     2.2623                 2.2250                 2.6661
 Frc consts  --     0.2301                 0.2660                 0.3732
 IR Inten    --     0.4954                 0.4753                 1.9171

                    19                     20                     21
                     A                      A                      A
 Frequencies --   505.7160               597.3067               749.1877
 Red. masses --     2.5031                 2.6015                 1.1420
 Frc consts  --     0.3772                 0.5469                 0.3776
 IR Inten    --     1.1600                 2.5012                 4.6449

                    22                     23                     24
                     A                      A                      A
 Frequencies --   784.6797               822.8975               844.5251
 Red. masses --     3.1043                 2.2667                 1.6670
 Frc consts  --     1.1262                 0.9043                 0.7005
 IR Inten    --     2.1108                 1.4351                 3.6551

                    25                     26                     27
                     A                      A                      A
 Frequencies --   879.3375               930.2680               937.4036
 Red. masses --     2.5342                 1.2494                 1.8778
 Frc consts  --     1.1545                 0.6370                 0.9722
 IR Inten    --    10.6238                 1.8585                 0.9858

                    28                     29                     30
                     A                      A                      A
 Frequencies --   943.4189               964.9666               967.0119
 Red. masses --     1.6944                 1.4551                 1.7054
 Frc consts  --     0.8885                 0.7983                 0.9396
 IR Inten    --     1.0305                 0.9036                 3.9639

                    31                     32                     33
                     A                      A                      A
 Frequencies --   991.6225              1029.5866              1043.3324
 Red. masses --     1.7301                 3.5454                 1.4172
 Frc consts  --     1.0023                 2.2143                 0.9089
 IR Inten    --     0.0092                 0.2957                 1.0524

                    34                     35                     36
                     A                      A                      A
 Frequencies --  1059.8922              1112.5658              1133.7634
 Red. masses --     2.3066                 1.7839                 1.5868
 Frc consts  --     1.5266                 1.3010                 1.2018
 IR Inten    --     0.4306                 0.1179                 2.0047

                    37                     38                     39
                     A                      A                      A
 Frequencies --  1145.1422              1170.4038              1191.0673
 Red. masses --     2.9990                 2.8920                 1.7785
 Frc consts  --     2.3171                 2.3341                 1.4865
 IR Inten    --     4.0353                 1.8350                 3.9695

                    40                     41                     42
                     A                      A                      A
 Frequencies --  1196.8251              1225.0907              1271.9988
 Red. masses --     2.4175                 1.6611                 1.2351
 Frc consts  --     2.0402                 1.4689                 1.1774
 IR Inten    --     0.7521                 1.5112                 0.1812

                    43                     44                     45
                     A                      A                      A
 Frequencies --  1286.0935              1303.0702              1324.5066
 Red. masses --     1.3003                 1.2779                 1.2979
 Frc consts  --     1.2672                 1.2784                 1.3416
 IR Inten    --    11.1135                 0.6819                 1.0705

                    46                     47                     48
                     A                      A                      A
 Frequencies --  1339.1558              1356.0023              1358.7909
 Red. masses --     1.1328                 1.3675                 1.3421
 Frc consts  --     1.1969                 1.4815                 1.4600
 IR Inten    --     0.8470                 3.4479                 2.3016

                    49                     50                     51
                     A                      A                      A
 Frequencies --  1372.8216              1383.2031              1390.7072
 Red. masses --     1.3261                 1.3266                 1.4231
 Frc consts  --     1.4724                 1.4954                 1.6216
 IR Inten    --     3.6529                 4.3694                 1.2390

                    52                     53                     54
                     A                      A                      A
 Frequencies --  1400.3699              1405.7661              1418.7291
 Red. masses --     1.4309                 1.3262                 1.2474
 Frc consts  --     1.6533                 1.5441                 1.4793
 IR Inten    --     1.7189                 9.0122                 6.7304

                    55                     56                     57
                     A                      A                      A
 Frequencies --  1423.8798              1477.6065              1483.3669
 Red. masses --     1.2385                 1.0861                 1.0719
 Frc consts  --     1.4794                 1.3972                 1.3896
 IR Inten    --     6.1412                10.5719                 0.1874

                    58                     59                     60
                     A                      A                      A
 Frequencies --  1488.5316              1492.2609              1498.1364
 Red. masses --     1.0761                 1.0439                 1.0587
 Frc consts  --     1.4048                 1.3696                 1.3999
 IR Inten    --     1.5121                 0.7930                 2.1816

                    61                     62                     63
                     A                      A                      A
 Frequencies --  1501.8481              1505.5142              1507.7175
 Red. masses --     1.0457                 1.0733                 1.0531
 Frc consts  --     1.3897                 1.4334                 1.4104
 IR Inten    --     7.3131                 0.9456                 6.3282

                    64                     65                     66
                     A                      A                      A
 Frequencies --  1509.3416              1514.2570              2983.1053
 Red. masses --     1.0733                 1.0537                 1.0807
 Frc consts  --     1.4407                 1.4235                 5.6664
 IR Inten    --     6.8855                16.6234                 7.8967

                    67                     68                     69
                     A                      A                      A
 Frequencies --  2988.6397              2991.5181              2997.3747
 Red. masses --     1.0790                 1.0680                 1.0660
 Frc consts  --     5.6783                 5.6310                 5.6427
 IR Inten    --     8.1778                 5.6618                42.4624

                    70                     71                     72
                     A                      A                      A
 Frequencies --  3012.6212              3013.8636              3020.4259
 Red. masses --     1.0581                 1.0397                 1.0379
 Frc consts  --     5.6580                 5.5643                 5.5788
 IR Inten    --    16.0794                56.8082                23.9694

                    73                     74                     75
                     A                      A                      A
 Frequencies --  3026.4360              3028.2157              3046.8661
 Red. masses --     1.0992                 1.0364                 1.0957
 Frc consts  --     5.9317                 5.5993                 5.9929
 IR Inten    --    29.3464                31.1782                14.9671

                    76                     77                     78
                     A                      A                      A
 Frequencies --  3064.4815              3072.8779              3076.6488
 Red. masses --     1.0613                 1.1007                 1.0968
 Frc consts  --     5.8720                 6.1237                 6.1169
 IR Inten    --    25.6391                 4.2161                19.4676

                    79                     80                     81
                     A                      A                      A
 Frequencies --  3079.6352              3083.1705              3089.5440
 Red. masses --     1.1000                 1.1011                 1.1005
 Frc consts  --     6.1469                 6.1670                 6.1893
 IR Inten    --    83.7947                63.3457                35.8479

                    82                     83                     84
                     A                      A                      A
 Frequencies --  3094.1394              3100.9627              3131.1467
 Red. masses --     1.0990                 1.1023                 1.1067
 Frc consts  --     6.1993                 6.2449                 6.3926
 IR Inten    --    47.5218                28.9222                13.6690

 - Thermochemistry -
 -------------------
 Temperature   298.150 Kelvin.  Pressure   1.00000 Atm.
 Atom     1 has atomic number  6 and mass  12.00000

 Molecular mass:   159.13850 amu.
 Principal axes and moments of inertia in atomic units:
                           1         2         3
     Eigenvalues --   978.516494121.926004695.06432
           X            0.99973   0.02256  -0.00567
           Y           -0.02229   0.99882   0.04322
           Z            0.00664  -0.04308   0.99905
 This molecule is an asymmetric top.
 Rotational symmetry number  1.
 Warning -- assumption of classical behavior for rotation
           may cause significant error
 Rotational temperatures (Kelvin)      0.08852     0.02101     0.01845
 Rotational constants (GHZ):           1.84436     0.43784     0.38439
 Zero-point vibrational energy     707416.4 (Joules/Mol)
                                  169.07658 (Kcal/Mol)
 Warning -- explicit consideration of  20 degrees of freedom as
           vibrations may cause significant error
 Vibrational temperatures:     49.22    56.87    91.39   132.45   136.56
          (Kelvin)            177.18   231.65   308.51   326.04   330.61
                              352.84   363.47   375.75   518.15   543.49
                              597.74   648.11   701.29   727.61   859.39
                             1077.91  1128.98  1183.96  1215.08  1265.17
                             1338.45  1348.71  1357.37  1388.37  1391.31
                             1426.72  1481.34  1501.12  1524.95  1600.73
                             1631.23  1647.60  1683.95  1713.68  1721.96
                             1762.63  1830.12  1850.40  1874.83  1905.67
                             1926.74  1950.98  1954.99  1975.18  1990.12
                             2000.91  2014.82  2022.58  2041.23  2048.64
                             2125.94  2134.23  2141.66  2147.03  2155.48
                             2160.82  2166.10  2169.27  2171.60  2178.68
                             4292.02  4299.98  4304.12  4312.55  4334.48
                             4336.27  4345.71  4354.36  4356.92  4383.76
                             4409.10  4421.18  4426.61  4430.90  4435.99
                             4445.16  4451.77  4461.59  4505.02

 Zero-point correction=                           0.269441 (Hartree/Particle)
 Thermal correction to Energy=                    0.283531
 Thermal correction to Enthalpy=                  0.284476
 Thermal correction to Gibbs Free Energy=         0.226990
 Sum of electronic and zero-point Energies=           -504.601045
 Sum of electronic and thermal Energies=              -504.586954
 Sum of electronic and thermal Enthalpies=            -504.586010
 Sum of electronic and thermal Free Energies=         -504.643496

                     E (Thermal)             CV                S
                      KCal/Mol        Cal/Mol-Kelvin    Cal/Mol-Kelvin
 Total                  177.919             50.512            120.989
 Electronic               0.000              0.000              1.377
 Translational            0.889              2.981             41.103
 Rotational               0.889              2.981             31.316
 Vibrational            176.141             44.551             47.192
 Vibration     1          0.594              1.983              5.569
 Vibration     2          0.594              1.981              5.283
 Vibration     3          0.597              1.972              4.345
 Vibration     4          0.602              1.955              3.616
 Vibration     5          0.603              1.953              3.556
 Vibration     6          0.610              1.930              3.050
 Vibration     7          0.622              1.890              2.538
 Vibration     8          0.644              1.819              2.006
 Vibration     9          0.650              1.800              1.906
 Vibration    10          0.652              1.796              1.881
 Vibration    11          0.660              1.771              1.765
 Vibration    12          0.664              1.758              1.712
 Vibration    13          0.669              1.744              1.654
 Vibration    14          0.735              1.554              1.122
 Vibration    15          0.748              1.518              1.048
 Vibration    16          0.779              1.437              0.908
 Vibration    17          0.809              1.360              0.794
 Vibration    18          0.843              1.278              0.690
 Vibration    19          0.861              1.237              0.644
 Vibration    20          0.955              1.038              0.454

 Normal termination of Gaussian 09 at Mon Feb  3 05:06:00 2014.

 -----------------------------------------------------------
 #N Geom=AllCheck Guess=TCheck SCRF=Check CCSD(T)/6-31+G(d')
 -----------------------------------------------------------

 ----------------------------------------------------------------------
 C9H19O2_1_26 using B3LYP/6-311++g(d,p) to do opt and cal. freq CBS-QB3
  to cal. energy
 ----------------------------------------------------------------------
 Charge =  0 Multiplicity = 2

                         Standard orientation:
 ---------------------------------------------------------------------
 Center     Atomic      Atomic             Coordinates (Angstroms)
 Number     Number       Type             X           Y           Z
 ---------------------------------------------------------------------
      1          6           0       -3.191417   -1.646189   -0.204035
      2          1           0       -2.899082   -2.685462   -0.372962
      3          1           0       -3.421675   -1.199276   -1.174393
      4          1           0       -4.110088   -1.648917    0.390093
      5          6           0       -2.067143   -0.874275    0.503145
      6          1           0       -1.892660   -1.343655    1.482069
      7          6           0       -0.750753   -0.944723   -0.294377
      8          1           0       -0.561738   -2.000988   -0.520546
      9          1           0       -0.888069   -0.447996   -1.261537
     10          6           0        0.481472   -0.359818    0.407826
     11          1           0        0.574167   -0.799758    1.410378
     12          1           0        0.343702    0.715730    0.544201
     13          6           0        1.776673   -0.616049   -0.373731
     14          1           0        1.701776   -0.142945   -1.362195
     15          1           0        1.866723   -1.693941   -0.559471
     16          6           0        3.067387   -0.131902    0.314112
     17          1           0        3.100144   -0.587416    1.313813
     18          6           0        4.301997   -0.615614   -0.459633
     19          1           0        4.317282   -0.195199   -1.471185
     20          1           0        5.227164   -0.311951    0.038966
     21          1           0        4.313596   -1.705645   -0.552526
     22          6           0       -2.509697    0.554253    0.834990
     23          1           0       -3.442406    0.549677    1.403849
     24          1           0       -1.750212    1.123070    1.370172
     25          6           0        3.106377    1.392958    0.489445
     26          1           0        4.036744    1.705878    0.972366
     27          1           0        3.050762    1.896782   -0.481866
     28          1           0        2.279067    1.759503    1.101551
     29          8           0       -2.837666    1.313427   -0.369307
     30          8           0       -1.804155    1.994154   -0.827847
 ---------------------------------------------------------------------

 SCF Done:  E(UHF) =  -501.481944920     A.U. after   23 cycles
 E2 =    -0.1557577722D+01 EUMP2 =    -0.50303952264182D+03
