 Gaussian 09, Revision D.01,
 Gaussian 09:  ES64L-G09RevD.01 24-Apr-2013

 ----------------
 # M062X/def2TZVP
 ----------------

 -------------------
 Title Card Required
 -------------------
 Symbolic Z-matrix:
 Charge =  0 Multiplicity = 1

                         Standard orientation:
 ---------------------------------------------------------------------
 Center     Atomic      Atomic             Coordinates (Angstroms)
 Number     Number       Type             X           Y           Z
 ---------------------------------------------------------------------
      1          1           0        0.000000    0.000000    0.371394
      2          1           0        0.000000    0.000000   -0.371394
 ---------------------------------------------------------------------

 SCF Done:  E(RM062X) =  -1.16835008844     A.U. after    9 cycles

 The electronic state is 1-SGG.
 Alpha  occ. eigenvalues --   -0.49570
 Alpha virt. eigenvalues --    0.10699   0.24260   0.56380   1.33990   1.33990
 Alpha virt. eigenvalues --    1.66027   1.97876   1.97876   2.12612   2.53457
 Alpha virt. eigenvalues --    3.90048

 Mulliken charges:
               1
     1  H    0.000000
     2  H    0.000000
 Sum of Mulliken charges =   0.00000

 Dipole moment (field-independent basis, Debye):
    X=              0.0000    Y=              0.0000    Z=              0.0000  Tot=              0.0000
 Quadrupole moment (field-independent basis, Debye-Ang):
   XX=             -2.0775   YY=             -2.0775   ZZ=             -1.5140
   XY=              0.0000   XZ=              0.0000   YZ=              0.0000

 Normal termination of Gaussian 09 at Tue Oct  6 16:44:03 2015.
