 Gaussian 09, Revision D.01,
 Gaussian 09:  ES64L-G09RevD.01 24-Apr-2013

 -----------------
 #p M062X/def2TZVP
 -----------------

 -----------------------------
 using ub3lyp/6-31G(d) to scan
 -----------------------------
 Symbolic Z-matrix:
 Charge =  0 Multiplicity = 1

                         Standard orientation:
 ---------------------------------------------------------------------
 Center     Atomic      Atomic             Coordinates (Angstroms)
 Number     Number       Type             X           Y           Z
 ---------------------------------------------------------------------
      1          6           0        1.902919   -0.125407    0.016831
      2          1           0        2.056294   -0.814339   -0.822655
      3          1           0        2.037084   -0.697271    0.943348
      4          1           0        2.695383    0.629456   -0.024708
      5          6           0        0.515907    0.522473   -0.044287
      6          1           0        0.406338    1.236754    0.786110
      7          1           0        0.404021    1.101445   -0.969540
      8          6           0       -0.620921   -0.498280    0.026392
      9          1           0       -0.536545   -1.091739    0.953075
     10          1           0       -0.547758   -1.200921   -0.811395
     11          8           0       -1.910316    0.093287   -0.088723
     12          1           0       -2.019718    0.697610    0.661938
 ---------------------------------------------------------------------

 SCF Done:  E(RM062X) =  -194.333700554     A.U. after   13 cycles

 The electronic state is 1-A.
 Alpha  occ. eigenvalues --  -19.62158 -10.58019 -10.53513 -10.53071  -1.13887
 Alpha  occ. eigenvalues --   -0.87775  -0.76466  -0.68290  -0.58264  -0.53447
 Alpha  occ. eigenvalues --   -0.49799  -0.48998  -0.45387  -0.41798  -0.41186
 Alpha  occ. eigenvalues --   -0.38668  -0.34619
 Alpha virt. eigenvalues --    0.06049   0.07606   0.11094   0.11854   0.13867
 Alpha virt. eigenvalues --    0.15006   0.15731   0.18117   0.18611   0.21766
 Alpha virt. eigenvalues --    0.22757   0.24304   0.26605   0.28042   0.31071

 Mulliken charges:
               1
     1  C   -0.437061
     2  H    0.140109
     3  H    0.135842
     4  H    0.144852
     5  C   -0.257627
     6  H    0.116069
     7  H    0.140986
     8  C   -0.065135
     9  H    0.114590
    10  H    0.126284
    11  O   -0.466138
    12  H    0.307229
 Sum of Mulliken charges =   0.00000

 Dipole moment (field-independent basis, Debye):
    X=              1.2832    Y=              0.4245    Z=              1.1793  Tot=              1.7937
 Quadrupole moment (field-independent basis, Debye-Ang):
   XX=            -30.3956   YY=            -26.0554   ZZ=            -25.6827
   XY=             -1.3068   XZ=             -2.9035   YZ=              1.2521

 Normal termination of Gaussian 09 at Tue Oct  6 19:35:49 2015.
