 Gaussian 09, Revision C.01,

 --------------------------------------------------
 #p UB3LYP/6-311++G(d,p) guess=mix stable=(opt,xqc)
 --------------------------------------------------

 (Enter /usr/caen/gaussian-09revc/g09/l101.exe)
 --------------------------------------------
 C9H18OOH_1_26_d using cbs-qb3 to cal. energy
 --------------------------------------------
 Charge =  0 Multiplicity = 2

 SCF Done:  E(UB3LYP) =  -504.850418849     A.U. after   19 cycles
 Normal termination of Gaussian 09 at Fri Feb  7 19:40:18 2014.
 Gaussian 09:  EM64L-G09RevC.01 23-Sep-2011

 ------------------------------------------------
 #p cbs-qb3 opt=calcfc freq geom=check guess=read
 ------------------------------------------------

 ---------------------
 optimization and freq
 ---------------------
 Structure from the checkpoint file:  C9H18OOH_1_26_d.chk
 Charge =  0 Multiplicity = 2

 SCF Done:  E(UB3LYP) =  -504.841669025     A.U. after   10 cycles
 SCF Done:  E(UB3LYP) =  -504.841769535     A.U. after   13 cycles
 SCF Done:  E(UB3LYP) =  -504.841776715     A.U. after   11 cycles
 SCF Done:  E(UB3LYP) =  -504.841777836     A.U. after    9 cycles
 SCF Done:  E(UB3LYP) =  -504.841777647     A.U. after    8 cycles
 SCF Done:  E(UB3LYP) =  -504.841777564     A.U. after    7 cycles
 Optimization completed.
    -- Stationary point found.
 Normal termination of Gaussian 09 at Fri Feb  7 20:28:51 2014.

 ---------------------------------------------------------
 #P Geom=AllCheck Guess=TCheck SCRF=Check B3LYP/CBSB7 Freq
 ---------------------------------------------------------

 Structure from the checkpoint file:  C9H18OOH_1_26_d.chk
 ---------------------
 optimization and freq
 ---------------------
 Charge =  0 Multiplicity = 2

 SCF Done:  E(UB3LYP) =  -504.841777564     A.U. after    1 cycles

  Exact polarizability: 134.332   5.421 109.458  -3.880   0.146 100.302
 Approx polarizability: 158.604   5.078 151.221  -5.441  -4.496 153.793

                     1                      2                      3
                     A                      A                      A
 Frequencies --    17.3797                35.2142                62.4199
 Red. masses --     2.6630                 4.5751                 4.4084
 Frc consts  --     0.0005                 0.0033                 0.0101
 IR Inten    --     0.1042                 0.0310                 2.8571

                     4                      5                      6
                     A                      A                      A
 Frequencies --    77.3633               105.6783               117.1181
 Red. masses --     2.9621                 2.3981                 2.5114
 Frc consts  --     0.0104                 0.0158                 0.0203
 IR Inten    --     0.2209                 0.0971                 0.0821

                     7                      8                      9
                     A                      A                      A
 Frequencies --   164.6274               183.3302               211.8398
 Red. masses --     2.3335                 1.1277                 1.3173
 Frc consts  --     0.0373                 0.0223                 0.0348
 IR Inten    --     1.3565               113.4733                 0.9335

                    10                     11                     12
                     A                      A                      A
 Frequencies --   219.4447               224.3622               244.7702
 Red. masses --     1.8591                 1.1559                 2.6072
 Frc consts  --     0.0527                 0.0343                 0.0920
 IR Inten    --     0.3472                 0.4172                 1.8725

                    13                     14                     15
                     A                      A                      A
 Frequencies --   251.2460               255.3321               347.1434
 Red. masses --     1.8740                 1.3994                 2.5826
 Frc consts  --     0.0697                 0.0538                 0.1834
 IR Inten    --     5.0361                 2.7122                 0.8509

                    16                     17                     18
                     A                      A                      A
 Frequencies --   374.5997               398.1453               443.3212
 Red. masses --     2.4255                 1.9988                 1.9193
 Frc consts  --     0.2005                 0.1867                 0.2222
 IR Inten    --     1.8172                 0.9852                 2.3528

                    19                     20                     21
                     A                      A                      A
 Frequencies --   451.8564               482.5913               511.2637
 Red. masses --     2.0937                 2.2224                 2.6492
 Frc consts  --     0.2519                 0.3050                 0.4080
 IR Inten    --     3.0284                10.5712                 3.5616

                    22                     23                     24
                     A                      A                      A
 Frequencies --   659.1907               754.7751               795.5493
 Red. masses --     2.6681                 1.4292                 2.5916
 Frc consts  --     0.6831                 0.4797                 0.9664
 IR Inten    --    10.4568                 2.0608                 2.7921

                    25                     26                     27
                     A                      A                      A
 Frequencies --   827.6509               861.9971               922.0245
 Red. masses --     2.6172                 4.2344                 1.9112
 Frc consts  --     1.0563                 1.8538                 0.9573
 IR Inten    --     0.4737                16.8449                 1.2010

                    28                     29                     30
                     A                      A                      A
 Frequencies --   928.1017               944.7833               952.7653
 Red. masses --     1.2090                 1.9683                 1.9377
 Frc consts  --     0.6136                 1.0351                 1.0364
 IR Inten    --     1.4638                 2.2767                 1.1257

                    31                     32                     33
                     A                      A                      A
 Frequencies --   960.3990               969.0386              1001.5951
 Red. masses --     1.4605                 1.8110                 1.8721
 Frc consts  --     0.7937                 1.0020                 1.1066
 IR Inten    --     0.0994                 0.3849                25.4322

                    34                     35                     36
                     A                      A                      A
 Frequencies --  1033.3734              1048.2994              1092.5945
 Red. masses --     3.2869                 2.3542                 1.4635
 Frc consts  --     2.0680                 1.5243                 1.0293
 IR Inten    --     0.4638                10.4153                 0.0595

                    37                     38                     39
                     A                      A                      A
 Frequencies --  1105.9351              1121.5523              1165.3238
 Red. masses --     2.3924                 1.9476                 2.1025
 Frc consts  --     1.7240                 1.4434                 1.6822
 IR Inten    --     0.9151                 2.0411                 0.8138

                    40                     41                     42
                     A                      A                      A
 Frequencies --  1188.2740              1192.8176              1226.3944
 Red. masses --     1.9204                 1.9112                 1.5282
 Frc consts  --     1.5976                 1.6021                 1.3542
 IR Inten    --     1.3788                 4.6185                 2.8725

                    43                     44                     45
                     A                      A                      A
 Frequencies --  1259.2691              1282.0569              1293.4648
 Red. masses --     1.2985                 1.2177                 1.2737
 Frc consts  --     1.2132                 1.1792                 1.2555
 IR Inten    --     0.6232                 3.2602                 0.8725

                    46                     47                     48
                     A                      A                      A
 Frequencies --  1313.7371              1322.2111              1354.9416
 Red. masses --     1.2390                 1.1626                 1.3813
 Frc consts  --     1.2599                 1.1976                 1.4941
 IR Inten    --     1.3725                 0.7992                 6.4339

                    49                     50                     51
                     A                      A                      A
 Frequencies --  1360.6834              1369.6478              1385.3163
 Red. masses --     1.1273                 1.3290                 1.3880
 Frc consts  --     1.2297                 1.4689                 1.5694
 IR Inten    --    33.1943                 4.6090                 8.8200

                    52                     53                     54
                     A                      A                      A
 Frequencies --  1391.3210              1401.4017              1411.7581
 Red. masses --     1.3431                 1.2621                 1.3337
 Frc consts  --     1.5318                 1.4604                 1.5661
 IR Inten    --    15.1122                 8.1693                14.7975

                    55                     56                     57
                     A                      A                      A
 Frequencies --  1420.3038              1424.7415              1459.3745
 Red. masses --     1.2573                 1.6453                 1.0836
 Frc consts  --     1.4944                 1.9677                 1.3598
 IR Inten    --     2.7491                 4.9722                 4.1144

                    58                     59                     60
                     A                      A                      A
 Frequencies --  1470.8523              1487.6182              1491.8706
 Red. masses --     1.0729                 1.0682                 1.0440
 Frc consts  --     1.3676                 1.3928                 1.3691
 IR Inten    --     0.3924                 0.5573                 1.3695

                    61                     62                     63
                     A                      A                      A
 Frequencies --  1497.2188              1499.1016              1504.7538
 Red. masses --     1.0424                 1.0723                 1.0553
 Frc consts  --     1.3768                 1.4199                 1.4078
 IR Inten    --     8.3453                 2.4859                 5.7233

                    64                     65                     66
                     A                      A                      A
 Frequencies --  1505.8999              1512.8135              2940.0115
 Red. masses --     1.0540                 1.0490                 1.0679
 Frc consts  --     1.4083                 1.4144                 5.4383
 IR Inten    --     4.3149                15.1351                22.0309

                    67                     68                     69
                     A                      A                      A
 Frequencies --  2946.6197              2982.6194              2984.2594
 Red. masses --     1.0805                 1.0835                 1.0837
 Frc consts  --     5.5272                 5.6792                 5.6861
 IR Inten    --    24.7129                 1.2517                23.0454

                    70                     71                     72
                     A                      A                      A
 Frequencies --  3002.1565              3012.3827              3016.7197
 Red. masses --     1.0612                 1.0363                 1.0559
 Frc consts  --     5.6351                 5.5408                 5.6618
 IR Inten    --    36.5010                33.2633                48.6145

                    73                     74                     75
                     A                      A                      A
 Frequencies --  3018.5340              3029.0742              3040.6136
 Red. masses --     1.0383                 1.0367                 1.1022
 Frc consts  --     5.5742                 5.6044                 6.0037
 IR Inten    --    36.6730                28.7290                40.0763

                    76                     77                     78
                     A                      A                      A
 Frequencies --  3065.0368              3071.1436              3078.1690
 Red. masses --     1.1078                 1.1005                 1.0999
 Frc consts  --     6.1319                 6.1158                 6.1405
 IR Inten    --    35.1049                 5.2920                82.6858

                    79                     80                     81
                     A                      A                      A
 Frequencies --  3082.8994              3090.3628              3090.8764
 Red. masses --     1.1017                 1.1000                 1.0998
 Frc consts  --     6.1693                 6.1898                 6.1903
 IR Inten    --    47.1942                37.6347                42.4950

                    82                     83                     84
                     A                      A                      A
 Frequencies --  3106.3683              3146.8193              3768.5526
 Red. masses --     1.1024                 1.0869                 1.0687
 Frc consts  --     6.2676                 6.3413                 8.9423
 IR Inten    --    22.0454                16.1037                37.6026

 - Thermochemistry -
 -------------------
 Temperature   298.150 Kelvin.  Pressure   1.00000 Atm.
 Atom     1 has atomic number  6 and mass  12.00000

 Molecular mass:   159.13850 amu.
 Principal axes and moments of inertia in atomic units:
                           1         2         3
     Eigenvalues --   946.580334361.371204902.22630
           X            0.99986   0.01593  -0.00449
           Y           -0.01579   0.99944   0.02943
           Z            0.00496  -0.02935   0.99956
 This molecule is an asymmetric top.
 Rotational symmetry number  1.
 Warning -- assumption of classical behavior for rotation
           may cause significant error
 Rotational temperatures (Kelvin)      0.09150     0.01986     0.01767
 Rotational constants (GHZ):           1.90659     0.41380     0.36815
 Zero-point vibrational energy     698769.0 (Joules/Mol)
                                  167.00980 (Kcal/Mol)
 Warning -- explicit consideration of  21 degrees of freedom as
           vibrations may cause significant error
 Vibrational temperatures:     25.01    50.67    89.81   111.31   152.05
          (Kelvin)            168.51   236.86   263.77   304.79   315.73
                              322.81   352.17   361.49   367.37   499.46
                              538.96   572.84   637.84   650.12   694.34
                              735.59   948.43  1085.95  1144.62  1190.80
                             1240.22  1326.59  1335.33  1359.33  1370.82
                             1381.80  1394.23  1441.07  1486.79  1508.27
                             1572.00  1591.19  1613.66  1676.64  1709.66
                             1716.20  1764.51  1811.81  1844.59  1861.01
                             1890.17  1902.36  1949.46  1957.72  1970.62
                             1993.16  2001.80  2016.30  2031.20  2043.50
                             2049.88  2099.71  2116.23  2140.35  2146.47
                             2154.16  2156.87  2165.00  2166.65  2176.60
                             4230.02  4239.52  4291.32  4293.68  4319.43
                             4334.14  4340.38  4342.99  4358.16  4374.76
                             4409.90  4418.69  4428.79  4435.60  4446.34
                             4447.08  4469.37  4527.57  5422.10

 Zero-point correction=                           0.266147 (Hartree/Particle)
 Thermal correction to Energy=                    0.281143
 Thermal correction to Enthalpy=                  0.282088
 Thermal correction to Gibbs Free Energy=         0.222201
 Sum of electronic and zero-point Energies=           -504.575630
 Sum of electronic and thermal Energies=              -504.560634
 Sum of electronic and thermal Enthalpies=            -504.559690
 Sum of electronic and thermal Free Energies=         -504.619577

                     E (Thermal)             CV                S
                      KCal/Mol        Cal/Mol-Kelvin    Cal/Mol-Kelvin
 Total                  176.420             53.288            126.042
 Electronic               0.000              0.000              1.377
 Translational            0.889              2.981             41.103
 Rotational               0.889              2.981             31.382
 Vibrational            174.643             47.327             52.180
 Vibration     1          0.593              1.986              6.913
 Vibration     2          0.594              1.982              5.512
 Vibration     3          0.597              1.972              4.379
 Vibration     4          0.599              1.964              3.957
 Vibration     5          0.605              1.945              3.347
 Vibration     6          0.608              1.935              3.147
 Vibration     7          0.623              1.886              2.496
 Vibration     8          0.631              1.863              2.294
 Vibration     9          0.643              1.823              2.028
 Vibration    10          0.647              1.811              1.964
 Vibration    11          0.649              1.804              1.924
 Vibration    12          0.660              1.771              1.768
 Vibration    13          0.663              1.761              1.722
 Vibration    14          0.666              1.754              1.693
 Vibration    15          0.725              1.581              1.179
 Vibration    16          0.746              1.524              1.061
 Vibration    17          0.764              1.474              0.969
 Vibration    18          0.803              1.376              0.816
 Vibration    19          0.811              1.357              0.790
 Vibration    20          0.839              1.289              0.703
 Vibration    21          0.866              1.225              0.631

 Optimization completed.
    -- Stationary point found.
 Normal termination of Gaussian 09 at Fri Feb  7 20:49:23 2014.

 -----------------------------------------------------------
 #P Geom=AllCheck Guess=TCheck SCRF=Check CCSD(T)/6-31+G(d')
 -----------------------------------------------------------

 Structure from the checkpoint file:  C9H18OOH_1_26_d.chk
 ---------------------
 optimization and freq
 ---------------------
 Charge =  0 Multiplicity = 2

 SCF Done:  E(UHF) =  -501.444890511     A.U. after   22 cycles
 E2 =    -0.1567854207D+01 EUMP2 =    -0.50301274471818D+03
 CCSD(T)
 CCSD(T)= -0.50318479859D+03
 -503.1291366\CCSD=-503.1316728\CCSD(T)=-503.1847986\S2=0.763741\S2-1=0
 Normal termination of Gaussian 09 at Sat Feb  8 06:54:26 2014.

 -----------------------------------------------------
 #P Geom=AllCheck Guess=TCheck SCRF=Check MP4SDQ/CBSB4
 -----------------------------------------------------

 Structure from the checkpoint file:  C9H18OOH_1_26_d.chk
 ---------------------
 optimization and freq
 ---------------------
 Charge =  0 Multiplicity = 2

 SCF Done:  E(UHF) =  -501.476296399     A.U. after   14 cycles
 E2 =    -0.1693426610D+01 EUMP2 =    -0.50316972300846D+03
 Normal termination of Gaussian 09 at Sat Feb  8 07:29:33 2014.

 ----------------------------------------------------------------------
 #P Geom=AllCheck Guess=TCheck SCRF=Check MP2/CBSB3 CBSExtrap=(NMin=10,
 MinPop)
 ----------------------------------------------------------------------

 Structure from the checkpoint file:  C9H18OOH_1_26_d.chk
 ---------------------
 optimization and freq
 ---------------------
 Charge =  0 Multiplicity = 2

                         Standard orientation:
 ---------------------------------------------------------------------
 Center     Atomic      Atomic             Coordinates (Angstroms)
 Number     Number       Type             X           Y           Z
 ---------------------------------------------------------------------
      1          6           0       -2.945022   -1.838351   -0.299129
      2          1           0       -2.488153   -2.796143   -0.558129
      3          1           0       -3.251521   -1.342351   -1.222776
      4          1           0       -3.846081   -2.038487    0.288481
      5          6           0       -1.955376   -0.956997    0.477152
      6          1           0       -1.723254   -1.449832    1.436080
      7          6           0       -0.669782   -0.765084   -0.266331
      8          1           0       -0.705164   -0.786599   -1.351922
      9          6           0        0.555464   -0.211629    0.382671
     10          1           0        0.621080   -0.566508    1.421762
     11          1           0        0.468570    0.885489    0.450252
     12          6           0        1.853123   -0.568152   -0.361935
     13          1           0        1.806242   -0.157325   -1.379314
     14          1           0        1.897420   -1.657459   -0.475432
     15          6           0        3.152069   -0.089925    0.313171
     16          1           0        3.153636   -0.479535    1.340830
     17          6           0        4.376449   -0.671837   -0.407426
     18          1           0        4.425052   -0.316514   -1.442633
     19          1           0        5.306359   -0.376999    0.087770
     20          1           0        4.341835   -1.764926   -0.432775
     21          6           0       -2.630560    0.372003    0.899846
     22          1           0       -3.514496    0.153679    1.510520
     23          1           0       -1.948283    0.999423    1.483105
     24          6           0        3.251106    1.440457    0.390857
     25          1           0        4.188322    1.747296    0.864657
     26          1           0        3.225932    1.882402   -0.611552
     27          1           0        2.432919    1.877492    0.968238
     28          8           0       -3.176822    1.132028   -0.172337
     29          8           0       -2.073237    1.771144   -0.877892
     30          1           0       -2.314764    2.698615   -0.748576
 ---------------------------------------------------------------------

 SCF Done:  E(UHF) =  -501.613567672     A.U. after   18 cycles
 E2 =    -0.1996223309D+01 EUMP2 =    -0.50360979098061D+03
 E2(CBS)=      -2.190337 CBS-Int=       0.065639 OIii=      17.377088

 The electronic state is 2-A.
 Alpha  occ. eigenvalues --  -20.62210 -20.62172 -11.28130 -11.22892 -11.22134
 Alpha  occ. eigenvalues --  -11.21685 -11.21315 -11.21132 -11.20767 -11.20647
 Alpha  occ. eigenvalues --  -11.20620  -1.46880  -1.22979  -1.10193  -1.07497
 Alpha  occ. eigenvalues --   -1.00844  -0.92464  -0.91960  -0.90882  -0.82462
 Alpha  occ. eigenvalues --   -0.76204  -0.75750  -0.71888  -0.66808  -0.64353
 Alpha  occ. eigenvalues --   -0.63756  -0.61356  -0.59902  -0.59792  -0.57725
 Alpha  occ. eigenvalues --   -0.56524  -0.54928  -0.53151  -0.52850  -0.51752
 Alpha  occ. eigenvalues --   -0.50396  -0.50058  -0.49033  -0.48047  -0.47278
 Alpha  occ. eigenvalues --   -0.45371  -0.45079  -0.44530  -0.43923  -0.32126
 Alpha virt. eigenvalues --    0.03754   0.04632   0.04861   0.05317   0.06295
 Alpha virt. eigenvalues --    0.06420   0.06897   0.07449   0.07681   0.08391
 Alpha virt. eigenvalues --    0.08492   0.09439   0.09744   0.10012   0.11526

  Beta  occ. eigenvalues --  -20.62202 -20.62163 -11.27892 -11.23217 -11.22138
  Beta  occ. eigenvalues --  -11.21627 -11.21064 -11.20720 -11.20642 -11.20619
  Beta  occ. eigenvalues --  -11.19213  -1.46858  -1.22887  -1.09076  -1.06397
  Beta  occ. eigenvalues --   -1.00237  -0.92448  -0.91525  -0.88528  -0.81797
  Beta  occ. eigenvalues --   -0.75936  -0.73394  -0.71526  -0.66625  -0.64062
  Beta  occ. eigenvalues --   -0.63115  -0.60541  -0.59662  -0.59393  -0.57248
  Beta  occ. eigenvalues --   -0.55956  -0.54456  -0.53061  -0.52627  -0.51271
  Beta  occ. eigenvalues --   -0.50062  -0.49488  -0.48777  -0.47447  -0.46951
  Beta  occ. eigenvalues --   -0.45275  -0.44843  -0.43856  -0.43354
  Beta virt. eigenvalues --    0.03765   0.04616   0.04850   0.05310   0.06298
  Beta virt. eigenvalues --    0.06366   0.06902   0.07373   0.07674   0.08392
  Beta virt. eigenvalues --    0.08511   0.09428   0.09734   0.10010   0.11331

 Mulliken atomic charges:
              1
     1  C   -0.364865
     2  H    0.061696
     3  H    0.088568
     4  H    0.077612
     5  C    1.097925
     6  H    0.067181
     7  C   -0.281154
     8  H    0.148162
     9  C   -0.443097
    10  H    0.053008
    11  H    0.000435
    12  C   -0.638074
    13  H    0.074905
    14  H    0.038558
    15  C    0.951898
    16  H    0.026059
    17  C   -0.403168
    18  H    0.052811
    19  H    0.097296
    20  H    0.057262
    21  C   -0.502579
    22  H    0.114935
    23  H    0.110524
    24  C   -0.605806
    25  H    0.086237
    26  H    0.065267
    27  H    0.079195
    28  O   -0.158283
    29  O   -0.243088
    30  H    0.290578
 Sum of Mulliken atomic charges =   0.00000

 Dipole moment (field-independent basis, Debye):
    X=              0.2305    Y=              0.7098    Z=              1.5231  Tot=              1.6960
 Quadrupole moment (field-independent basis, Debye-Ang):
   XX=            -75.3562   YY=            -67.0109   ZZ=            -71.3145
   XY=             -0.8781   XZ=             -3.5865   YZ=             -0.4786

 Normal termination of Gaussian 09 at Sat Feb  8 09:16:12 2014.
