 Gaussian 09, Revision C.01,

 --------------------------------------------------
 #p UB3LYP/6-311++G(d,p) guess=mix stable=(opt,xqc)
 --------------------------------------------------

 (Enter /usr/caen/gaussian-09revc/g09/l101.exe)
 --------------------------------
 HO2 using cbs-qb3 to cal. energy
 --------------------------------
 Charge =  0 Multiplicity = 2

 SCF Done:  E(UB3LYP) =  -150.958066062     A.U. after   18 cycles
 Normal termination of Gaussian 09 at Mon Feb 10 17:14:03 2014.
 Gaussian 09:  EM64L-G09RevC.01 23-Sep-2011

 ------------------------------------------------
 #p cbs-qb3 opt=calcfc freq geom=check guess=read
 ------------------------------------------------

 ---------------------
 optimization and freq
 ---------------------
 Structure from the checkpoint file:  HO2.chk
 Charge =  0 Multiplicity = 2

 SCF Done:  E(UB3LYP) =  -150.950402090     A.U. after   11 cycles
 SCF Done:  E(UB3LYP) =  -150.950407875     A.U. after    9 cycles
 Optimization completed.
    -- Stationary point found.
 Normal termination of Gaussian 09 at Mon Feb 10 17:14:26 2014.

 ---------------------------------------------------------
 #P Geom=AllCheck Guess=TCheck SCRF=Check B3LYP/CBSB7 Freq
 ---------------------------------------------------------

 Structure from the checkpoint file:  HO2.chk
 ---------------------
 optimization and freq
 ---------------------
 Charge =  0 Multiplicity = 2

 SCF Done:  E(UB3LYP) =  -150.950407875     A.U. after    1 cycles

  Exact polarizability:   6.846   1.769  14.442   0.000   0.000   4.638
 Approx polarizability:   8.467   1.998  23.149   0.000   0.000   5.389

                     1                      2                      3
                    A'                     A'                     A'
 Frequencies --  1163.5098              1427.6826              3610.2410
 Red. masses --    11.9086                 1.1441                 1.0692
 Frc consts  --     9.4984                 1.3740                 8.2104
 IR Inten    --    28.7865                33.4421                21.5471

 - Thermochemistry -
 -------------------
 Temperature   298.150 Kelvin.  Pressure   1.00000 Atm.
 Atom     1 has atomic number  8 and mass  15.99491

 Molecular mass:    32.99765 amu.
 Principal axes and moments of inertia in atomic units:
                           1         2         3
     Eigenvalues --     2.89964  53.54373  56.44338
           X            0.06001   0.99820   0.00000
           Y            0.99820  -0.06001   0.00000
           Z            0.00000   0.00000   1.00000
 This molecule is an asymmetric top.
 Rotational symmetry number  1.
 Rotational temperatures (Kelvin)     29.87052     1.61763     1.53453
 Rotational constants (GHZ):         622.40149    33.70593    31.97437
 Zero-point vibrational energy      37092.8 (Joules/Mol)
                                    8.86539 (Kcal/Mol)
 Vibrational temperatures:   1674.03  2054.11  5194.33
          (Kelvin)

 Zero-point correction=                           0.014128 (Hartree/Particle)
 Thermal correction to Energy=                    0.016986
 Thermal correction to Enthalpy=                  0.017931
 Thermal correction to Gibbs Free Energy=        -0.008049
 Sum of electronic and zero-point Energies=           -150.936280
 Sum of electronic and thermal Energies=              -150.933421
 Sum of electronic and thermal Enthalpies=            -150.932477
 Sum of electronic and thermal Free Energies=         -150.958456

                     E (Thermal)             CV                S
                      KCal/Mol        Cal/Mol-Kelvin    Cal/Mol-Kelvin
 Total                   10.659              6.288             54.678
 Electronic               0.000              0.000              1.377
 Translational            0.889              2.981             36.413
 Rotational               0.889              2.981             16.823
 Vibrational              8.882              0.326              0.064

 Optimization completed.
    -- Stationary point found.
 Normal termination of Gaussian 09 at Mon Feb 10 17:14:37 2014.

 -----------------------------------------------------------
 #P Geom=AllCheck Guess=TCheck SCRF=Check CCSD(T)/6-31+G(d')
 -----------------------------------------------------------

 Structure from the checkpoint file:  HO2.chk
 ---------------------
 optimization and freq
 ---------------------
 Charge =  0 Multiplicity = 2

 SCF Done:  E(UHF) =  -150.170014130     A.U. after   18 cycles
 E2 =    -0.3470965018D+00 EUMP2 =    -0.15051711063175D+03
 CCSD(T)
 CCSD(T)= -0.15054629018D+03
 Normal termination of Gaussian 09 at Mon Feb 10 17:15:18 2014.

 -----------------------------------------------------
 #P Geom=AllCheck Guess=TCheck SCRF=Check MP4SDQ/CBSB4
 -----------------------------------------------------

 Structure from the checkpoint file:  HO2.chk
 ---------------------
 optimization and freq
 ---------------------
 Charge =  0 Multiplicity = 2

 SCF Done:  E(UHF) =  -150.178494051     A.U. after   14 cycles
 E2 =    -0.3536588809D+00 EUMP2 =    -0.15053215293191D+03
 Normal termination of Gaussian 09 at Mon Feb 10 17:15:29 2014.

 ----------------------------------------------------------------------
 #P Geom=AllCheck Guess=TCheck SCRF=Check MP2/CBSB3 CBSExtrap=(NMin=10,
 MinPop)
 ----------------------------------------------------------------------

 Structure from the checkpoint file:  HO2.chk
 ---------------------
 optimization and freq
 ---------------------
 Charge =  0 Multiplicity = 2

                         Standard orientation:
 ---------------------------------------------------------------------
 Center     Atomic      Atomic             Coordinates (Angstroms)
 Number     Number       Type             X           Y           Z
 ---------------------------------------------------------------------
      1          8           0        0.055286   -0.609633    0.000000
      2          1           0       -0.884573   -0.870725    0.000000
      3          8           0        0.055286    0.718474    0.000000
 ---------------------------------------------------------------------

 SCF Done:  E(UHF) =  -150.231783928     A.U. after   13 cycles
 E2 =    -0.4382852956D+00 EUMP2 =    -0.15067006922320D+03
 E2(CBS)=      -0.486504 CBS-Int=       0.013385 OIii=       3.641667

 The electronic state is 2-A".
 Alpha  occ. eigenvalues --  -20.69112 -20.67500  -1.57835  -1.20969  -0.77431
 Alpha  occ. eigenvalues --   -0.75918  -0.67648  -0.52881  -0.52494
 Alpha virt. eigenvalues --    0.04393   0.16451   0.21475   0.22179   0.24289
 Alpha virt. eigenvalues --    0.27611   0.28333   0.28397   0.32018   0.39191
 Alpha virt. eigenvalues --    0.42609   0.66439   0.83567   0.87389   1.04815

  Beta  occ. eigenvalues --  -20.66725 -20.64966  -1.51578  -1.10641  -0.75430
  Beta  occ. eigenvalues --   -0.65225  -0.57269  -0.48820
  Beta virt. eigenvalues --    0.04432   0.10220   0.17113   0.21534   0.23957
  Beta virt. eigenvalues --    0.24504   0.27684   0.28614   0.32007   0.32699
  Beta virt. eigenvalues --    0.42360   0.42849   0.66539   0.83769   0.87290

 Mulliken atomic charges:
              1
     1  O   -0.236516
     2  H    0.282381
     3  O   -0.045865
 Sum of Mulliken atomic charges =   0.00000

 Dipole moment (field-independent basis, Debye):
    X=             -1.8001    Y=             -0.9374    Z=              0.0000  Tot=              2.0296
 Quadrupole moment (field-independent basis, Debye-Ang):
   XX=             -9.7702   YY=            -10.9270   ZZ=            -10.9432
   XY=              1.8030   XZ=              0.0000   YZ=              0.0000

 Normal termination of Gaussian 09 at Mon Feb 10 17:16:03 2014.
