 Gaussian 09, Revision C.01,
 Gaussian 09:  EM64L-G09RevC.01 23-Sep-2011

 -------------------------------
 #p cbs-qb3 opt=(TS,calcfc) freq
 -------------------------------

 (Enter /usr/caen/gaussian-09revc/g09/l101.exe)
 ------------------------------------
 TS_1_1e using cbs-qb3 to cal. energy
 ------------------------------------
 Charge =  0 Multiplicity = 2

 SCF Done:  E(UB3LYP) =  -504.833091624     A.U. after   17 cycles
 SCF Done:  E(UB3LYP) =  -504.833156890     A.U. after   13 cycles
 SCF Done:  E(UB3LYP) =  -504.833157516     A.U. after   10 cycles
 SCF Done:  E(UB3LYP) =  -504.833157746     A.U. after    9 cycles
 Optimization completed.
    -- Stationary point found.
 Normal termination of Gaussian 09 at Mon Feb 17 02:04:56 2014.

 ---------------------------------------------------------
 #P Geom=AllCheck Guess=TCheck SCRF=Check B3LYP/CBSB7 Freq
 ---------------------------------------------------------

 Structure from the checkpoint file:  TS_1_1e.chk
 ------------------------------------
 TS_1_1e using cbs-qb3 to cal. energy
 ------------------------------------
 Charge =  0 Multiplicity = 2

 SCF Done:  E(UB3LYP) =  -504.833157746     A.U. after    1 cycles

  Exact polarizability: 147.750   7.635 117.213   2.526  -0.796  96.343
 Approx polarizability: 169.083  12.262 177.390   8.656   1.812 154.899

 ******    1 imaginary frequencies (negative Signs) ******

                     1                      2                      3
                     A                      A                      A
 Frequencies -- -1712.4927                33.6802                52.9400
 Red. masses --     1.1134                 2.7468                 3.7222
 Frc consts  --     1.9237                 0.0018                 0.0061
 IR Inten    --   849.8819                 0.2922                 0.6828

                     4                      5                      6
                     A                      A                      A
 Frequencies --    84.3903               107.5099               140.4590
 Red. masses --     3.1076                 2.7337                 2.6805
 Frc consts  --     0.0130                 0.0186                 0.0312
 IR Inten    --     0.6498                 1.1036                 1.1817

                     7                      8                      9
                     A                      A                      A
 Frequencies --   206.8458               229.6939               234.7662
 Red. masses --     2.1117                 1.6549                 1.5121
 Frc consts  --     0.0532                 0.0514                 0.0491
 IR Inten    --     0.4337                 0.0835                 0.2484

                    10                     11                     12
                     A                      A                      A
 Frequencies --   260.8907               261.3117               289.0679
 Red. masses --     1.1294                 1.1071                 3.4522
 Frc consts  --     0.0453                 0.0445                 0.1700
 IR Inten    --     0.2647                 0.1160                 3.4591

                    13                     14                     15
                     A                      A                      A
 Frequencies --   327.9524               353.1788               374.5327
 Red. masses --     3.0950                 3.0196                 2.4575
 Frc consts  --     0.1961                 0.2219                 0.2031
 IR Inten    --     1.1948                 0.8772                 2.8206

                    16                     17                     18
                     A                      A                      A
 Frequencies --   407.4716               415.8947               447.7325
 Red. masses --     2.4819                 2.0328                 2.2186
 Frc consts  --     0.2428                 0.2072                 0.2620
 IR Inten    --     1.7343                 0.4590                 0.5333

                    19                     20                     21
                     A                      A                      A
 Frequencies --   497.8840               559.1341               591.9968
 Red. masses --     3.0043                 3.2103                 3.8774
 Frc consts  --     0.4388                 0.5913                 0.8006
 IR Inten    --     1.0789                 0.6650                 1.5906

                    22                     23                     24
                     A                      A                      A
 Frequencies --   786.8849               814.6505               841.8882
 Red. masses --     1.5610                 2.0624                 1.6231
 Frc consts  --     0.5695                 0.8064                 0.6778
 IR Inten    --     7.7665                 6.2367                 1.7922

                    25                     26                     27
                     A                      A                      A
 Frequencies --   851.5547               894.2879               930.2765
 Red. masses --     2.1514                 2.4404                 1.2000
 Frc consts  --     0.9192                 1.1499                 0.6119
 IR Inten    --     1.7289                 5.4236                 1.0752

                    28                     29                     30
                     A                      A                      A
 Frequencies --   940.5560               950.3589               962.6246
 Red. masses --     1.6529                 1.7881                 2.0692
 Frc consts  --     0.8615                 0.9515                 1.1297
 IR Inten    --     6.3380                 2.3165                 7.0418

                    31                     32                     33
                     A                      A                      A
 Frequencies --   968.9529               991.4635              1024.5107
 Red. masses --     1.4858                 1.4919                 4.7721
 Frc consts  --     0.8219                 0.8640                 2.9512
 IR Inten    --     0.1150                 0.6954                22.1241

                    34                     35                     36
                     A                      A                      A
 Frequencies --  1030.6219              1064.6208              1087.5351
 Red. masses --     3.1345                 1.7329                 2.0426
 Frc consts  --     1.9616                 1.1572                 1.4234
 IR Inten    --    13.6104                 2.5076                 9.9391

                    37                     38                     39
                     A                      A                      A
 Frequencies --  1112.6839              1140.2171              1142.0505
 Red. masses --     1.8890                 1.8727                 1.3140
 Frc consts  --     1.3779                 1.4345                 1.0098
 IR Inten    --     0.8516                 8.6846                17.1472

                    40                     41                     42
                     A                      A                      A
 Frequencies --  1170.8508              1183.7775              1191.9926
 Red. masses --     2.2863                 2.1241                 1.7887
 Frc consts  --     1.8467                 1.7538                 1.4974
 IR Inten    --     2.4885                 3.1908                 2.8408

                    43                     44                     45
                     A                      A                      A
 Frequencies --  1228.2846              1263.3070              1276.8191
 Red. masses --     1.4798                 1.1896                 1.2760
 Frc consts  --     1.3154                 1.1186                 1.2257
 IR Inten    --     2.6269                 0.8118                 1.9235

                    46                     47                     48
                     A                      A                      A
 Frequencies --  1298.8306              1320.3218              1337.6254
 Red. masses --     1.1568                 1.2858                 1.3030
 Frc consts  --     1.1498                 1.3207                 1.3736
 IR Inten    --     4.3635                 2.4090                 4.4759

                    49                     50                     51
                     A                      A                      A
 Frequencies --  1363.0430              1370.4271              1388.7934
 Red. masses --     1.3860                 1.3565                 1.3059
 Frc consts  --     1.5171                 1.5010                 1.4840
 IR Inten    --     0.5233                 2.1610                 3.5322

                    52                     53                     54
                     A                      A                      A
 Frequencies --  1395.4406              1399.4956              1405.4189
 Red. masses --     1.5020                 1.4655                 1.2505
 Frc consts  --     1.7232                 1.6912                 1.4553
 IR Inten    --     6.1310                 0.4464                 7.3674

                    55                     56                     57
                     A                      A                      A
 Frequencies --  1415.8714              1427.1984              1461.3654
 Red. masses --     1.2373                 1.2337                 1.0806
 Frc consts  --     1.4614                 1.4806                 1.3597
 IR Inten    --     4.9931                 4.4152                 1.0815

                    58                     59                     60
                     A                      A                      A
 Frequencies --  1470.0647              1480.5668              1488.1381
 Red. masses --     1.0798                 1.0865                 1.0444
 Frc consts  --     1.3749                 1.4033                 1.3627
 IR Inten    --     3.7560                 0.3461                 2.7857

                    61                     62                     63
                     A                      A                      A
 Frequencies --  1496.3950              1502.8078              1503.7124
 Red. masses --     1.0531                 1.0553                 1.0436
 Frc consts  --     1.3893                 1.4042                 1.3903
 IR Inten    --     5.0598                 4.3252                 8.4583

                    64                     65                     66
                     A                      A                      A
 Frequencies --  1505.8991              1509.3143              1521.0077
 Red. masses --     1.0485                 1.0598                 1.0512
 Frc consts  --     1.4009                 1.4224                 1.4329
 IR Inten    --    16.9064                13.4138                 5.6320

                    67                     68                     69
                     A                      A                      A
 Frequencies --  2945.4036              2976.7067              2985.9978
 Red. masses --     1.0704                 1.0689                 1.0814
 Frc consts  --     5.4711                 5.5802                 5.6811
 IR Inten    --    25.4794                29.4148                11.5175

                    70                     71                     72
                     A                      A                      A
 Frequencies --  3010.7058              3014.9966              3015.6849
 Red. masses --     1.0847                 1.0545                 1.0378
 Frc consts  --     5.7931                 5.6475                 5.5609
 IR Inten    --    16.4852                29.0282                35.6787

                    73                     74                     75
                     A                      A                      A
 Frequencies --  3020.4284              3022.3622              3025.4024
 Red. masses --     1.0447                 1.0783                 1.0377
 Frc consts  --     5.6155                 5.8036                 5.5960
 IR Inten    --    61.5792                 8.2808                21.9522

                    76                     77                     78
                     A                      A                      A
 Frequencies --  3040.5112              3056.6149              3070.2468
 Red. masses --     1.0872                 1.0881                 1.1055
 Frc consts  --     5.9217                 5.9897                 6.1400
 IR Inten    --     0.6167                31.7019                13.9641

                    79                     80                     81
                     A                      A                      A
 Frequencies --  3075.6789              3080.8054              3082.2033
 Red. masses --     1.1012                 1.1014                 1.1019
 Frc consts  --     6.1377                 6.1593                 6.1675
 IR Inten    --    23.6494                54.1951                24.8072

                    82                     83                     84
                     A                      A                      A
 Frequencies --  3086.4815              3089.8528              3101.7565
 Red. masses --     1.1010                 1.1015                 1.0995
 Frc consts  --     6.1794                 6.1959                 6.2324
 IR Inten    --    74.7729                37.0827                36.1742

 - Thermochemistry -
 -------------------
 Temperature   298.150 Kelvin.  Pressure   1.00000 Atm.
 Atom     1 has atomic number  6 and mass  12.00000

 Molecular mass:   159.13850 amu.
 Principal axes and moments of inertia in atomic units:
                           1         2         3
     Eigenvalues --   919.038333502.082644097.27419
           X            0.99989  -0.01414  -0.00364
           Y            0.01407   0.99973  -0.01864
           Z            0.00390   0.01859   0.99982
 This molecule is an asymmetric top.
 Rotational symmetry number  1.
 Warning -- assumption of classical behavior for rotation
           may cause significant error
 Rotational temperatures (Kelvin)      0.09424     0.02473     0.02114
 Rotational constants (GHZ):           1.96373     0.51533     0.44047
    1 imaginary frequencies ignored.
 Zero-point vibrational energy     690793.7 (Joules/Mol)
                                  165.10365 (Kcal/Mol)
 Warning -- explicit consideration of  20 degrees of freedom as
           vibrations may cause significant error
 Vibrational temperatures:     48.46    76.17   121.42   154.68   202.09
          (Kelvin)            297.60   330.48   337.78   375.36   375.97
                              415.90   471.85   508.14   538.87   586.26
                              598.38   644.19   716.34   804.47   851.75
                             1132.15  1172.10  1211.29  1225.20  1286.68
                             1338.46  1353.25  1367.35  1385.00  1394.11
                             1426.49  1474.04  1482.83  1531.75  1564.72
                             1600.90  1640.52  1643.15  1684.59  1703.19
                             1715.01  1767.23  1817.61  1837.06  1868.73
                             1899.65  1924.54  1961.11  1971.74  1998.16
                             2007.73  2013.56  2022.08  2037.12  2053.42
                             2102.58  2115.09  2130.20  2141.10  2152.98
                             2162.20  2163.50  2166.65  2171.56  2188.39
                             4237.77  4282.81  4296.18  4331.73  4337.90
                             4338.89  4345.72  4348.50  4352.87  4374.61
                             4397.78  4417.39  4425.21  4432.59  4434.60
                             4440.75  4445.60  4462.73

 Zero-point correction=                           0.263109 (Hartree/Particle)
 Thermal correction to Energy=                    0.276280
 Thermal correction to Enthalpy=                  0.277224
 Thermal correction to Gibbs Free Energy=         0.222765
 Sum of electronic and zero-point Energies=           -504.570048
 Sum of electronic and thermal Energies=              -504.556878
 Sum of electronic and thermal Enthalpies=            -504.555934
 Sum of electronic and thermal Free Energies=         -504.610392

                     E (Thermal)             CV                S
                      KCal/Mol        Cal/Mol-Kelvin    Cal/Mol-Kelvin
 Total                  173.368             49.520            114.617
 Electronic               0.000              0.000              1.377
 Translational            0.889              2.981             41.103
 Rotational               0.889              2.981             30.956
 Vibrational            171.591             43.558             41.181
 Vibration     1          0.594              1.983              5.600
 Vibration     2          0.596              1.976              4.704
 Vibration     3          0.601              1.960              3.786
 Vibration     4          0.606              1.943              3.313
 Vibration     5          0.615              1.913              2.798
 Vibration     6          0.641              1.830              2.071
 Vibration     7          0.652              1.796              1.881
 Vibration     8          0.655              1.788              1.842
 Vibration     9          0.669              1.744              1.656
 Vibration    10          0.669              1.744              1.653
 Vibration    11          0.686              1.694              1.479
 Vibration    12          0.711              1.620              1.270
 Vibration    13          0.729              1.569              1.152
 Vibration    14          0.746              1.524              1.061
 Vibration    15          0.772              1.454              0.936
 Vibration    16          0.779              1.436              0.906
 Vibration    17          0.807              1.366              0.803
 Vibration    18          0.853              1.255              0.663
 Vibration    19          0.915              1.120              0.526
 Vibration    20          0.949              1.049              0.464

 Optimization completed.
    -- Stationary point found.
 Normal termination of Gaussian 09 at Mon Feb 17 02:14:51 2014.

 -----------------------------------------------------------
 #P Geom=AllCheck Guess=TCheck SCRF=Check CCSD(T)/6-31+G(d')
 -----------------------------------------------------------

 Structure from the checkpoint file:  TS_1_1e.chk
 ------------------------------------
 TS_1_1e using cbs-qb3 to cal. energy
 ------------------------------------
 Charge =  0 Multiplicity = 2

 SCF Done:  E(UHF) =  -501.410890819     A.U. after   21 cycles
 E2 =    -0.1584404130D+01 EUMP2 =    -0.50299529494929D+03
 CCSD(T)
 CCSD(T)= -0.50316994289D+03
 856093\MP4SDQ=-503.1102076\CCSD=-503.1132496\CCSD(T)=-503.1699429\S2=0
 Normal termination of Gaussian 09 at Mon Feb 17 18:25:30 2014.

 -----------------------------------------------------
 #P Geom=AllCheck Guess=TCheck SCRF=Check MP4SDQ/CBSB4
 -----------------------------------------------------

 Structure from the checkpoint file:  TS_1_1e.chk
 ------------------------------------
 TS_1_1e using cbs-qb3 to cal. energy
 ------------------------------------
 Charge =  0 Multiplicity = 2

 SCF Done:  E(UHF) =  -501.440472491     A.U. after   18 cycles
 E2 =    -0.1711801255D+01 EUMP2 =    -0.50315227374535D+03
 Normal termination of Gaussian 09 at Mon Feb 17 18:52:00 2014.

 ----------------------------------------------------------------------
 #P Geom=AllCheck Guess=TCheck SCRF=Check MP2/CBSB3 CBSExtrap=(NMin=10,
 MinPop)
 ----------------------------------------------------------------------

 Structure from the checkpoint file:  TS_1_1e.chk
 ------------------------------------
 TS_1_1e using cbs-qb3 to cal. energy
 ------------------------------------
 Charge =  0 Multiplicity = 2

                         Standard orientation:
 ---------------------------------------------------------------------
 Center     Atomic      Atomic             Coordinates (Angstroms)
 Number     Number       Type             X           Y           Z
 ---------------------------------------------------------------------
      1          6           0        3.569722   -1.352416   -0.249593
      2          1           0        3.450797   -2.260078   -0.847094
      3          1           0        3.737681   -1.653316    0.789722
      4          1           0        4.472958   -0.842148   -0.597939
      5          6           0        2.335782   -0.449556   -0.368839
      6          1           0        2.168591   -0.242448   -1.431434
      7          6           0        1.058918   -1.128364    0.179451
      8          1           0        1.104990   -2.204345   -0.045015
      9          1           0        1.036080   -1.044127    1.271659
     10          6           0       -0.226473   -0.571993   -0.407681
     11          1           0       -0.318778   -0.747828   -1.484512
     12          1           0        0.045700    0.766555   -0.417411
     13          6           0       -1.500633   -0.790891    0.371412
     14          1           0       -1.413035   -0.307147    1.353953
     15          1           0       -1.583397   -1.869867    0.585272
     16          6           0       -2.799365   -0.329870   -0.316519
     17          1           0       -2.839974   -0.815556   -1.301353
     18          6           0       -4.022345   -0.796544    0.485164
     19          1           0       -4.027675   -0.346825    1.483964
     20          1           0       -4.952728   -0.508273   -0.012079
     21          1           0       -4.031396   -1.883664    0.608594
     22          6           0        2.615048    0.893034    0.337784
     23          1           0        3.168007    0.727660    1.268668
     24          1           0        3.198026    1.560753   -0.306445
     25          6           0       -2.840863    1.189112   -0.533910
     26          1           0       -3.777716    1.484045   -1.015407
     27          1           0       -2.772595    1.720759    0.420805
     28          1           0       -2.019406    1.541495   -1.160942
     29          8           0        1.437316    1.567613    0.792614
     30          8           0        0.589575    1.801047   -0.310942
 ---------------------------------------------------------------------

 SCF Done:  E(UHF) =  -501.577594581     A.U. after   19 cycles
 E2 =    -0.2015439111D+01 EUMP2 =    -0.50359303369168D+03
 E2(CBS)=      -2.212672 CBS-Int=       0.066012 OIii=      17.331496

 The electronic state is 2-A.
 Alpha  occ. eigenvalues --  -20.61768 -20.60628 -11.27565 -11.25718 -11.23726
 Alpha  occ. eigenvalues --  -11.23270 -11.22983 -11.22781 -11.22330 -11.21209
 Alpha  occ. eigenvalues --  -11.20592  -1.47454  -1.19965  -1.12131  -1.08247
 Alpha  occ. eigenvalues --   -1.02599  -0.93261  -0.92784  -0.91016  -0.84226
 Alpha  occ. eigenvalues --   -0.78191  -0.76907  -0.73281  -0.66545  -0.64663
 Alpha  occ. eigenvalues --   -0.63700  -0.62147  -0.60798  -0.59997  -0.58586
 Alpha  occ. eigenvalues --   -0.57249  -0.54968  -0.54374  -0.53533  -0.52977
 Alpha  occ. eigenvalues --   -0.52150  -0.51071  -0.49763  -0.48011  -0.46876
 Alpha  occ. eigenvalues --   -0.46340  -0.45814  -0.44795  -0.43368  -0.38036
 Alpha virt. eigenvalues --    0.03707   0.04485   0.04972   0.05441   0.06347
 Alpha virt. eigenvalues --    0.06473   0.06623   0.07432   0.08128   0.08493
 Alpha virt. eigenvalues --    0.08790   0.09326   0.09596   0.09875   0.11299

  Beta  occ. eigenvalues --  -20.60738 -20.59307 -11.27568 -11.23795 -11.23672
  Beta  occ. eigenvalues --  -11.23428 -11.22982 -11.22918 -11.22336 -11.21214
  Beta  occ. eigenvalues --  -11.20595  -1.44733  -1.15697  -1.10592  -1.08074
  Beta  occ. eigenvalues --   -1.00639  -0.93194  -0.92765  -0.90718  -0.81417
  Beta  occ. eigenvalues --   -0.76943  -0.76629  -0.68674  -0.65704  -0.64105
  Beta  occ. eigenvalues --   -0.62951  -0.60959  -0.59509  -0.59071  -0.56331
  Beta  occ. eigenvalues --   -0.55720  -0.54182  -0.53485  -0.52847  -0.52531
  Beta  occ. eigenvalues --   -0.51382  -0.49799  -0.48982  -0.47274  -0.46500
  Beta  occ. eigenvalues --   -0.46208  -0.45072  -0.43956  -0.40955
  Beta virt. eigenvalues --    0.03694   0.04490   0.04961   0.05449   0.06329
  Beta virt. eigenvalues --    0.06398   0.06563   0.06859   0.07930   0.08242
  Beta virt. eigenvalues --    0.08680   0.08935   0.09356   0.09683   0.09879

 Mulliken atomic charges:
              1
     1  C   -0.437693
     2  H    0.057944
     3  H    0.064915
     4  H    0.091102
     5  C    0.924755
     6  H    0.059721
     7  C   -0.636620
     8  H    0.056495
     9  H    0.137483
    10  C   -0.241145
    11  H    0.157968
    12  H    0.563263
    13  C   -0.673709
    14  H    0.102039
    15  H    0.038612
    16  C    1.019041
    17  H    0.030337
    18  C   -0.426636
    19  H    0.058992
    20  H    0.095621
    21  H    0.054403
    22  C   -0.440167
    23  H    0.091156
    24  H    0.102360
    25  C   -0.622467
    26  H    0.083614
    27  H    0.078589
    28  H    0.079670
    29  O   -0.093872
    30  O   -0.375771
 Sum of Mulliken atomic charges =   0.00000

 Dipole moment (field-independent basis, Debye):
    X=              0.4403    Y=             -3.2212    Z=             -0.6819  Tot=              3.3219
 Quadrupole moment (field-independent basis, Debye-Ang):
   XX=            -65.7587   YY=            -77.7247   ZZ=            -71.5606
   XY=             -1.3769   XZ=              0.0299   YZ=             -0.3750

    1 imaginary frequencies ignored.
 Normal termination of Gaussian 09 at Mon Feb 17 20:05:53 2014.
