 Gaussian 09, Revision C.01,
 Gaussian 09:  EM64L-G09RevC.01 23-Sep-2011

 -------------------------------
 #p cbs-qb3 opt=(TS,calcfc) freq
 -------------------------------

 (Enter /usr/caen/gaussian-09revc/g09/l101.exe)
 ------------------------------------
 TS_1_1g using cbs-qb3 to cal. energy
 ------------------------------------
 Charge =  0 Multiplicity = 2

 SCF Done:  E(UB3LYP) =  -504.831473460     A.U. after   18 cycles
 SCF Done:  E(UB3LYP) =  -504.831515127     A.U. after   13 cycles
 SCF Done:  E(UB3LYP) =  -504.831515448     A.U. after    9 cycles
 Optimization completed.
    -- Stationary point found.
 Normal termination of Gaussian 09 at Mon Feb 17 02:26:03 2014.

 ---------------------------------------------------------
 #P Geom=AllCheck Guess=TCheck SCRF=Check B3LYP/CBSB7 Freq
 ---------------------------------------------------------

 Structure from the checkpoint file:  TS_1_1g.chk
 ------------------------------------
 TS_1_1g using cbs-qb3 to cal. energy
 ------------------------------------
 Charge =  0 Multiplicity = 2

 SCF Done:  E(UB3LYP) =  -504.831515448     A.U. after    1 cycles

  Exact polarizability: 161.613  14.156 113.228  -1.121   0.616 100.440
 Approx polarizability: 195.916  24.818 168.946  -6.294   0.356 154.435

 ******    1 imaginary frequencies (negative Signs) ******

                     1                      2                      3
                     A                      A                      A
 Frequencies -- -1762.1471                39.0556                88.5177
 Red. masses --     1.1173                 3.2245                 2.7425
 Frc consts  --     2.0440                 0.0029                 0.0127
 IR Inten    --  1539.9488                 0.6445                 0.8818

                     4                      5                      6
                     A                      A                      A
 Frequencies --   129.6959               135.1740               151.5454
 Red. masses --     3.3724                 2.6072                 2.5976
 Frc consts  --     0.0334                 0.0281                 0.0351
 IR Inten    --     2.3288                 0.7452                 0.2656

                     7                      8                      9
                     A                      A                      A
 Frequencies --   184.4143               194.1447               208.7665
 Red. masses --     1.1122                 2.7167                 1.1319
 Frc consts  --     0.0223                 0.0603                 0.0291
 IR Inten    --     0.3391                 0.5577                 0.1114

                    10                     11                     12
                     A                      A                      A
 Frequencies --   241.2846               247.7192               284.7565
 Red. masses --     1.2869                 2.2628                 2.7678
 Frc consts  --     0.0441                 0.0818                 0.1322
 IR Inten    --     0.1996                 2.4827                 0.0397

                    13                     14                     15
                     A                      A                      A
 Frequencies --   290.1218               345.9574               360.9650
 Red. masses --     2.6969                 2.5556                 2.0953
 Frc consts  --     0.1337                 0.1802                 0.1609
 IR Inten    --     2.3553                 0.8489                 0.7120

                    16                     17                     18
                     A                      A                      A
 Frequencies --   388.4974               410.8940               440.3994
 Red. masses --     2.0188                 3.4490                 2.2438
 Frc consts  --     0.1795                 0.3431                 0.2564
 IR Inten    --     0.8602                 4.0806                 1.3378

                    19                     20                     21
                     A                      A                      A
 Frequencies --   472.9606               541.5125               565.2404
 Red. masses --     3.3423                 2.9899                 3.1433
 Frc consts  --     0.4405                 0.5166                 0.5917
 IR Inten    --     0.8260                 1.0495                 1.3999

                    22                     23                     24
                     A                      A                      A
 Frequencies --   736.5130               807.5941               838.0840
 Red. masses --     1.6250                 2.3672                 1.6405
 Frc consts  --     0.5194                 0.9097                 0.6789
 IR Inten    --     6.0902                 4.7503                 1.9530

                    25                     26                     27
                     A                      A                      A
 Frequencies --   863.0443               904.3280               928.9057
 Red. masses --     2.3733                 2.4142                 1.7696
 Frc consts  --     1.0415                 1.1632                 0.8996
 IR Inten    --     0.2567                 3.1110                 1.2793

                    28                     29                     30
                     A                      A                      A
 Frequencies --   939.1765               953.4582               959.6577
 Red. masses --     1.3348                 1.8793                 1.9736
 Frc consts  --     0.6937                 1.0066                 1.0709
 IR Inten    --     0.1784                 0.9913                 9.1109

                    31                     32                     33
                     A                      A                      A
 Frequencies --   982.7757               995.7056              1009.4839
 Red. masses --     1.4128                 1.9484                 1.9462
 Frc consts  --     0.8040                 1.1381                 1.1685
 IR Inten    --     0.3647                 6.4217                 1.3858

                    34                     35                     36
                     A                      A                      A
 Frequencies --  1026.7419              1062.9957              1087.7424
 Red. masses --     6.1420                 2.8079                 1.8502
 Frc consts  --     3.8149                 1.8694                 1.2898
 IR Inten    --    71.7956                 1.6003                 3.8044

                    37                     38                     39
                     A                      A                      A
 Frequencies --  1105.3190              1126.6544              1152.8092
 Red. masses --     1.5465                 1.2177                 1.8384
 Frc consts  --     1.1132                 0.9107                 1.4395
 IR Inten    --    10.9030                18.5325                 0.0433

                    40                     41                     42
                     A                      A                      A
 Frequencies --  1164.2561              1188.9754              1226.0556
 Red. masses --     2.1292                 1.9652                 1.4518
 Frc consts  --     1.7005                 1.6368                 1.2858
 IR Inten    --     8.7470                 4.0432                10.3514

                    43                     44                     45
                     A                      A                      A
 Frequencies --  1251.5041              1279.5624              1290.6202
 Red. masses --     1.9930                 1.6915                 1.2875
 Frc consts  --     1.8392                 1.6317                 1.2636
 IR Inten    --     3.9950                 2.6536                 3.7379

                    46                     47                     48
                     A                      A                      A
 Frequencies --  1316.3697              1324.3822              1343.8767
 Red. masses --     1.2708                 1.1390                 1.2368
 Frc consts  --     1.2974                 1.1770                 1.3161
 IR Inten    --     0.5488                 0.5271                 2.1500

                    49                     50                     51
                     A                      A                      A
 Frequencies --  1361.1891              1381.7594              1394.2070
 Red. masses --     1.3652                 1.3244                 1.3211
 Frc consts  --     1.4903                 1.4899                 1.5130
 IR Inten    --     1.4554                 3.1739                 7.0580

                    52                     53                     54
                     A                      A                      A
 Frequencies --  1395.9523              1400.7877              1413.3962
 Red. masses --     1.2731                 1.3599                 1.2191
 Frc consts  --     1.4617                 1.5722                 1.4349
 IR Inten    --     6.6783                 3.2016                 6.4005

                    55                     56                     57
                     A                      A                      A
 Frequencies --  1416.8530              1466.4930              1470.2232
 Red. masses --     1.2274                 1.0900                 1.0521
 Frc consts  --     1.4517                 1.3812                 1.3399
 IR Inten    --     5.4710                 3.4582                 0.4326

                    58                     59                     60
                     A                      A                      A
 Frequencies --  1479.8862              1483.7597              1488.5692
 Red. masses --     1.0683                 1.0757                 1.0513
 Frc consts  --     1.3785                 1.3953                 1.3726
 IR Inten    --     1.1788                 1.9523                 3.5994

                    61                     62                     63
                     A                      A                      A
 Frequencies --  1492.5117              1495.5000              1501.2683
 Red. masses --     1.0758                 1.0709                 1.0560
 Frc consts  --     1.4119                 1.4112                 1.4023
 IR Inten    --     6.6647                 5.6773                 2.6401

                    64                     65                     66
                     A                      A                      A
 Frequencies --  1501.9160              1504.3486              1509.6409
 Red. masses --     1.0530                 1.0535                 1.0813
 Frc consts  --     1.3994                 1.4047                 1.4519
 IR Inten    --     9.3312                 7.0277                 6.5831

                    67                     68                     69
                     A                      A                      A
 Frequencies --  2974.8216              2978.9759              2987.4789
 Red. masses --     1.0654                 1.0522                 1.0536
 Frc consts  --     5.5550                 5.5017                 5.5405
 IR Inten    --    13.3038                20.5500                88.2590

                    70                     71                     72
                     A                      A                      A
 Frequencies --  3003.0075              3016.5508              3021.4061
 Red. masses --     1.0831                 1.0391                 1.0616
 Frc consts  --     5.7546                 5.5709                 5.7097
 IR Inten    --     9.8006                11.8893                27.2965

                    73                     74                     75
                     A                      A                      A
 Frequencies --  3028.7331              3032.2126              3036.8152
 Red. masses --     1.0579                 1.0643                 1.0944
 Frc consts  --     5.7179                 5.7657                 5.9463
 IR Inten    --    77.7251                17.6825                21.4329

                    76                     77                     78
                     A                      A                      A
 Frequencies --  3056.9251              3058.1761              3068.4882
 Red. masses --     1.0883                 1.0864                 1.0813
 Frc consts  --     5.9917                 5.9866                 5.9986
 IR Inten    --     3.8728                43.0319                 9.2587

                    79                     80                     81
                     A                      A                      A
 Frequencies --  3074.1037              3076.1165              3082.6997
 Red. masses --     1.1033                 1.1007                 1.1052
 Frc consts  --     6.1429                 6.1366                 6.1878
 IR Inten    --    10.4058                36.2828                54.5294

                    82                     83                     84
                     A                      A                      A
 Frequencies --  3090.7518              3094.1841              3102.8364
 Red. masses --     1.1011                 1.1025                 1.1021
 Frc consts  --     6.1973                 6.2192                 6.2517
 IR Inten    --    38.8795                26.0689                25.3329

 - Thermochemistry -
 -------------------
 Temperature   298.150 Kelvin.  Pressure   1.00000 Atm.
 Atom     1 has atomic number  6 and mass  12.00000

 Molecular mass:   159.13850 amu.
 Principal axes and moments of inertia in atomic units:
                           1         2         3
     Eigenvalues --  1076.781192715.716193179.98560
           X            0.99997  -0.00693   0.00400
           Y            0.00693   0.99997  -0.00143
           Z           -0.00399   0.00146   0.99999
 This molecule is an asymmetric top.
 Rotational symmetry number  1.
 Warning -- assumption of classical behavior for rotation
           may cause significant error
 Rotational temperatures (Kelvin)      0.08044     0.03189     0.02724
 Rotational constants (GHZ):           1.67605     0.66455     0.56753
    1 imaginary frequencies ignored.
 Zero-point vibrational energy     691027.4 (Joules/Mol)
                                  165.15951 (Kcal/Mol)
 Warning -- explicit consideration of  20 degrees of freedom as
           vibrations may cause significant error
 Vibrational temperatures:     56.19   127.36   186.60   194.49   218.04
          (Kelvin)            265.33   279.33   300.37   347.15   356.41
                              409.70   417.42   497.75   519.35   558.96
                              591.18   633.64   680.48   779.11   813.25
                             1059.68  1161.95  1205.81  1241.73  1301.12
                             1336.49  1351.26  1371.81  1380.73  1413.99
                             1432.60  1452.42  1477.25  1529.41  1565.02
                             1590.31  1621.00  1658.63  1675.10  1710.67
                             1764.02  1800.63  1841.00  1856.91  1893.96
                             1905.49  1933.54  1958.45  1988.04  2005.95
                             2008.46  2015.42  2033.56  2038.53  2109.95
                             2115.32  2129.22  2134.80  2141.72  2147.39
                             2151.69  2159.99  2160.92  2164.42  2172.03
                             4280.10  4286.08  4298.31  4320.65  4340.14
                             4347.12  4357.67  4362.67  4369.29  4398.23
                             4400.03  4414.86  4422.94  4425.84  4435.31
                             4446.90  4451.84  4464.28

 Zero-point correction=                           0.263198 (Hartree/Particle)
 Thermal correction to Energy=                    0.276463
 Thermal correction to Enthalpy=                  0.277407
 Thermal correction to Gibbs Free Energy=         0.223664
 Sum of electronic and zero-point Energies=           -504.568317
 Sum of electronic and thermal Energies=              -504.555053
 Sum of electronic and thermal Enthalpies=            -504.554109
 Sum of electronic and thermal Free Energies=         -504.607851

                     E (Thermal)             CV                S
                      KCal/Mol        Cal/Mol-Kelvin    Cal/Mol-Kelvin
 Total                  173.483             49.952            113.111
 Electronic               0.000              0.000              1.377
 Translational            0.889              2.981             41.103
 Rotational               0.889              2.981             30.609
 Vibrational            171.706             43.991             40.022
 Vibration     1          0.594              1.981              5.306
 Vibration     2          0.601              1.957              3.693
 Vibration     3          0.612              1.924              2.951
 Vibration     4          0.613              1.918              2.871
 Vibration     5          0.619              1.901              2.653
 Vibration     6          0.631              1.861              2.283
 Vibration     7          0.635              1.848              2.188
 Vibration     8          0.642              1.827              2.054
 Vibration     9          0.658              1.777              1.793
 Vibration    10          0.661              1.767              1.747
 Vibration    11          0.683              1.702              1.505
 Vibration    12          0.686              1.692              1.473
 Vibration    13          0.724              1.583              1.185
 Vibration    14          0.735              1.553              1.118
 Vibration    15          0.757              1.495              1.006
 Vibration    16          0.775              1.447              0.923
 Vibration    17          0.800              1.382              0.825
 Vibration    18          0.830              1.310              0.729
 Vibration    19          0.897              1.158              0.562
 Vibration    20          0.921              1.106              0.513

 Optimization completed.
    -- Stationary point found.
 Normal termination of Gaussian 09 at Mon Feb 17 02:43:14 2014.

 -----------------------------------------------------------
 #P Geom=AllCheck Guess=TCheck SCRF=Check CCSD(T)/6-31+G(d')
 -----------------------------------------------------------

 Structure from the checkpoint file:  TS_1_1g.chk
 ------------------------------------
 TS_1_1g using cbs-qb3 to cal. energy
 ------------------------------------
 Charge =  0 Multiplicity = 2

 SCF Done:  E(UHF) =  -501.405862674     A.U. after   23 cycles
 E2 =    -0.1587965718D+01 EUMP2 =    -0.50299382839284D+03
 CCSD(T)
 CCSD(T)= -0.50316881249D+03
 71\MP4SDQ=-503.1084157\CCSD=-503.111472\CCSD(T)=-503.1688125\S2=0.8000
 Normal termination of Gaussian 09 at Mon Feb 17 18:04:38 2014.

 -----------------------------------------------------
 #P Geom=AllCheck Guess=TCheck SCRF=Check MP4SDQ/CBSB4
 -----------------------------------------------------

 Structure from the checkpoint file:  TS_1_1g.chk
 ------------------------------------
 TS_1_1g using cbs-qb3 to cal. energy
 ------------------------------------
 Charge =  0 Multiplicity = 2

 SCF Done:  E(UHF) =  -501.435003669     A.U. after   19 cycles
 E2 =    -0.1715010047D+01 EUMP2 =    -0.50315001371582D+03
 Normal termination of Gaussian 09 at Mon Feb 17 18:40:36 2014.

 ----------------------------------------------------------------------
 #P Geom=AllCheck Guess=TCheck SCRF=Check MP2/CBSB3 CBSExtrap=(NMin=10,
 MinPop)
 ----------------------------------------------------------------------

 Structure from the checkpoint file:  TS_1_1g.chk
 ------------------------------------
 TS_1_1g using cbs-qb3 to cal. energy
 ------------------------------------
 Charge =  0 Multiplicity = 2

                         Standard orientation:
 ---------------------------------------------------------------------
 Center     Atomic      Atomic             Coordinates (Angstroms)
 Number     Number       Type             X           Y           Z
 ---------------------------------------------------------------------
      1          6           0        3.584200   -0.542937    0.424925
      2          1           0        3.512926   -0.424947    1.511315
      3          1           0        3.907606   -1.566859    0.221168
      4          1           0        4.368625    0.131732    0.067991
      5          6           0        2.234756   -0.251699   -0.248787
      6          1           0        2.347155   -0.438835   -1.324244
      7          6           0        1.115178   -1.167766    0.286848
      8          1           0        1.552531   -2.121578    0.600424
      9          1           0        0.700123   -0.715813    1.193269
     10          6           0       -0.015384   -1.453356   -0.730767
     11          1           0        0.193677   -2.399033   -1.240518
     12          1           0       -0.013205   -0.685079   -1.508176
     13          6           0       -1.414979   -1.511987   -0.087898
     14          1           0       -1.349586   -2.034890    0.872499
     15          1           0       -2.083211   -2.116105   -0.719198
     16          6           0       -2.062903   -0.144029    0.102662
     17          1           0       -1.056056    0.745400    0.305642
     18          6           0       -2.686616    0.439808   -1.150731
     19          1           0       -3.604991   -0.108871   -1.405964
     20          1           0       -2.953390    1.489817   -1.010225
     21          1           0       -2.014599    0.376167   -2.009793
     22          6           0        1.918491    1.238321   -0.054981
     23          1           0        1.978421    1.511237    1.002700
     24          1           0        2.635956    1.850349   -0.611715
     25          6           0       -2.904147    0.017574    1.351280
     26          1           0       -3.238101    1.050680    1.479506
     27          1           0       -3.803746   -0.612978    1.291440
     28          1           0       -2.355982   -0.280989    2.248760
     29          8           0        0.638794    1.673781   -0.544133
     30          8           0       -0.305760    1.652097    0.504110
 ---------------------------------------------------------------------

 SCF Done:  E(UHF) =  -501.571396677     A.U. after   18 cycles
 E2 =    -0.2018894676D+01 EUMP2 =    -0.50359029135352D+03
 E2(CBS)=      -2.216608 CBS-Int=       0.066119 OIii=      17.322399

 The electronic state is 2-A.
 Alpha  occ. eigenvalues --  -20.61400 -20.60144 -11.26885 -11.25968 -11.22722
 Alpha  occ. eigenvalues --  -11.22696 -11.22269 -11.21964 -11.21874 -11.21636
 Alpha  occ. eigenvalues --  -11.21604  -1.46574  -1.19706  -1.12007  -1.07758
 Alpha  occ. eigenvalues --   -1.01822  -0.94372  -0.92668  -0.90317  -0.83147
 Alpha  occ. eigenvalues --   -0.78472  -0.77812  -0.70045  -0.66678  -0.64786
 Alpha  occ. eigenvalues --   -0.62709  -0.61984  -0.61360  -0.59739  -0.58481
 Alpha  occ. eigenvalues --   -0.56413  -0.54997  -0.54831  -0.53412  -0.52665
 Alpha  occ. eigenvalues --   -0.52137  -0.50886  -0.50131  -0.47984  -0.46763
 Alpha  occ. eigenvalues --   -0.46420  -0.45838  -0.44655  -0.41916  -0.36913
 Alpha virt. eigenvalues --    0.03903   0.04614   0.05001   0.05268   0.06473
 Alpha virt. eigenvalues --    0.06745   0.06827   0.07588   0.07815   0.08724
 Alpha virt. eigenvalues --    0.09350   0.09544   0.09767   0.09971   0.10655

  Beta  occ. eigenvalues --  -20.60209 -20.58898 -11.26878 -11.24087 -11.22858
  Beta  occ. eigenvalues --  -11.22696 -11.22414 -11.22019 -11.21897 -11.21643
  Beta  occ. eigenvalues --  -11.21604  -1.43737  -1.15359  -1.10200  -1.06410
  Beta  occ. eigenvalues --   -1.01372  -0.94284  -0.92609  -0.90017  -0.82530
  Beta  occ. eigenvalues --   -0.77700  -0.73520  -0.66359  -0.65763  -0.64080
  Beta  occ. eigenvalues --   -0.61692  -0.61184  -0.59327  -0.58448  -0.57383
  Beta  occ. eigenvalues --   -0.54989  -0.54468  -0.53982  -0.53271  -0.51799
  Beta  occ. eigenvalues --   -0.51285  -0.50421  -0.48392  -0.47170  -0.45848
  Beta  occ. eigenvalues --   -0.45581  -0.45379  -0.43650  -0.39385
  Beta virt. eigenvalues --    0.03661   0.04521   0.04997   0.05275   0.06425
  Beta virt. eigenvalues --    0.06551   0.06836   0.07412   0.07780   0.08231
  Beta virt. eigenvalues --    0.09022   0.09415   0.09569   0.09804   0.10029

 Mulliken atomic charges:
              1
     1  C   -0.456865
     2  H    0.064817
     3  H    0.058600
     4  H    0.075979
     5  C    0.623670
     6  H    0.067614
     7  C   -0.258898
     8  H    0.114170
     9  H    0.057565
    10  C   -0.158305
    11  H    0.094998
    12  H    0.069770
    13  C   -0.041391
    14  H    0.076995
    15  H    0.084984
    16  C    0.109969
    17  H    0.625934
    18  C   -0.649034
    19  H    0.059439
    20  H    0.096701
    21  H    0.076774
    22  C   -0.467690
    23  H    0.142778
    24  H    0.080902
    25  C   -0.274317
    26  H    0.089464
    27  H    0.065169
    28  H    0.073713
    29  O   -0.089764
    30  O   -0.413741
 Sum of Mulliken atomic charges =   0.00000

 Dipole moment (field-independent basis, Debye):
    X=             -0.1751    Y=             -2.4930    Z=              0.0890  Tot=              2.5007
 Quadrupole moment (field-independent basis, Debye-Ang):
   XX=            -64.1519   YY=            -76.3098   ZZ=            -71.7771
   XY=              1.5473   XZ=             -0.2514   YZ=              0.3503

    1 imaginary frequencies ignored.
 Normal termination of Gaussian 09 at Mon Feb 17 20:23:16 2014.
