 Gaussian 09, Revision A.01,
 Gaussian 09:  EM64L-G09RevA.01  8-May-2009

 -----------------------------------
 #p ub3lyp/6-31g(d) opt=modredundant
 -----------------------------------

 ---------------------------------------------------
 C3H7O2_62_b3631gd using cbs-qb3 to calculate energy
 ---------------------------------------------------
 Symbolic Z-matrix:
 Charge =  0 Multiplicity = 2

 SCF Done:  E(UB3LYP) =  -268.848708542     A.U. after   20 cycles
 Optimization completed.
    -- Stationary point found.
 SCF Done:  E(UB3LYP) =  -268.847698628     A.U. after   21 cycles
 SCF Done:  E(UB3LYP) =  -268.848575718     A.U. after   18 cycles
 SCF Done:  E(UB3LYP) =  -268.848632625     A.U. after   13 cycles
 SCF Done:  E(UB3LYP) =  -268.848634184     A.U. after   11 cycles
 Optimization completed.
 SCF Done:  E(UB3LYP) =  -268.847515711     A.U. after   20 cycles
 SCF Done:  E(UB3LYP) =  -268.848455908     A.U. after   18 cycles
 SCF Done:  E(UB3LYP) =  -268.848458906     A.U. after   12 cycles
 SCF Done:  E(UB3LYP) =  -268.847320068     A.U. after   20 cycles
 SCF Done:  E(UB3LYP) =  -268.848245533     A.U. after   18 cycles
 SCF Done:  E(UB3LYP) =  -268.848147808     A.U. after   11 cycles
 SCF Done:  E(UB3LYP) =  -268.847488295     A.U. after   20 cycles
 SCF Done:  E(UB3LYP) =  -268.848423729     A.U. after   18 cycles
 SCF Done:  E(UB3LYP) =  -268.848429279     A.U. after   12 cycles
 SCF Done:  E(UB3LYP) =  -268.847700845     A.U. after   20 cycles
 SCF Done:  E(UB3LYP) =  -268.848630991     A.U. after   18 cycles
 SCF Done:  E(UB3LYP) =  -268.848636174     A.U. after   12 cycles
    -- Stationary point found.
 SCF Done:  E(UB3LYP) =  -268.847777065     A.U. after   20 cycles
 SCF Done:  E(UB3LYP) =  -268.848705392     A.U. after   18 cycles
 SCF Done:  E(UB3LYP) =  -268.848708495     A.U. after   11 cycles
 Optimization completed.
    -- Stationary point found.

                         Standard orientation:
 ---------------------------------------------------------------------
 Center     Atomic      Atomic             Coordinates (Angstroms)
 Number     Number       Type             X           Y           Z
 ---------------------------------------------------------------------
      1          6           0       -1.912488   -0.706863    0.141926
      2          1           0       -1.363906   -1.570973   -0.245752
      3          1           0       -2.930652   -0.744321   -0.259291
      4          1           0       -1.977318   -0.811785    1.231705
      5          6           0       -1.221655    0.605064   -0.245933
      6          1           0       -1.202170    0.716782   -1.337394
      7          1           0       -1.788096    1.461182    0.143440
      8          6           0        0.199002    0.725645    0.282829
      9          1           0        0.656556    1.690127    0.040787
     10          1           0        0.263390    0.557899    1.362790
     11          8           0        1.005712   -0.307472   -0.363943
     12          8           0        2.238418   -0.322776    0.112790
 ---------------------------------------------------------------------

 The electronic state is 2-A.
 Alpha  occ. eigenvalues --  -19.25911 -19.21072 -10.24930 -10.20365 -10.18581
 Alpha  occ. eigenvalues --   -1.17988  -0.87910  -0.77730  -0.68524  -0.60544
 Alpha  occ. eigenvalues --   -0.51822  -0.51471  -0.47248  -0.44704  -0.42991
 Alpha  occ. eigenvalues --   -0.40581  -0.36468  -0.35995  -0.35478  -0.27155
 Alpha  occ. eigenvalues --   -0.26996
 Alpha virt. eigenvalues --    0.07664   0.10481   0.12979   0.13183   0.14378
 Alpha virt. eigenvalues --    0.15230   0.17084   0.18076   0.19277   0.21724
 Alpha virt. eigenvalues --    0.25282   0.49512   0.50307   0.51876   0.53967

  Beta  occ. eigenvalues --  -19.24974 -19.19199 -10.24972 -10.20367 -10.18580
  Beta  occ. eigenvalues --   -1.15315  -0.85338  -0.76706  -0.67883  -0.60286
  Beta  occ. eigenvalues --   -0.50483  -0.49126  -0.46442  -0.43835  -0.41280
  Beta  occ. eigenvalues --   -0.38262  -0.36098  -0.35559  -0.34255  -0.25243
  Beta virt. eigenvalues --   -0.09985   0.08088   0.10986   0.13096   0.13248
  Beta virt. eigenvalues --    0.14827   0.15528   0.17477   0.18650   0.19373
  Beta virt. eigenvalues --    0.21831   0.25353   0.49616   0.50383   0.52008

 Mulliken atomic charges:
              1
     1  C   -0.448018
     2  H    0.170382
     3  H    0.152089
     4  H    0.146875
     5  C   -0.289278
     6  H    0.159696
     7  H    0.151619
     8  C   -0.023828
     9  H    0.164027
    10  H    0.162858
    11  O   -0.177116
    12  O   -0.169306
 Sum of Mulliken atomic charges =   0.00000

 Dipole moment (field-independent basis, Debye):
    X=             -2.4862    Y=              1.4182    Z=              0.4426  Tot=              2.8963
 Quadrupole moment (field-independent basis, Debye-Ang):
   XX=            -34.7781   YY=            -29.7693   ZZ=            -30.1059
   XY=              1.1853   XZ=              0.1840   YZ=             -0.2519

 Normal termination of Gaussian 09 at Wed Apr  1 22:40:01 2015.
