 Gaussian 09, Revision D.01,
 Gaussian 09:  ES64L-G09RevD.01 24-Apr-2013

 -----------------------------------------
 #p M062X/def2TZVP EmpiricalDispersion=GD3
 -----------------------------------------

 -------------------
 Title Card Required
 -------------------
 Symbolic Z-matrix:
 Charge =  0 Multiplicity = 1

                         Standard orientation:
 ---------------------------------------------------------------------
 Center     Atomic      Atomic             Coordinates (Angstroms)
 Number     Number       Type             X           Y           Z
 ---------------------------------------------------------------------
      1          1           0        0.000000    0.000000    0.371420
      2          1           0        0.000000    0.000000   -0.371420
 ---------------------------------------------------------------------

 SCF Done:  E(RM062X) =  -1.16834988401     A.U. after    9 cycles

 The electronic state is 1-SGG.
 Alpha  occ. eigenvalues --   -0.49568
 Alpha virt. eigenvalues --    0.10698   0.24260   0.56379   1.33992   1.33992
 Alpha virt. eigenvalues --    1.66024   1.97872   1.97872   2.12619   2.53455
 Alpha virt. eigenvalues --    3.90021

 Mulliken charges:
               1
     1  H    0.000000
     2  H    0.000000
 Sum of Mulliken charges =   0.00000

 Dipole moment (field-independent basis, Debye):
    X=              0.0000    Y=              0.0000    Z=              0.0000  Tot=              0.0000
 Quadrupole moment (field-independent basis, Debye-Ang):
   XX=             -2.0776   YY=             -2.0776   ZZ=             -1.5140
   XY=              0.0000   XZ=              0.0000   YZ=              0.0000

 Normal termination of Gaussian 09 at Wed Apr 13 15:12:31 2016.
